ITEM: TIMESTEP
0
ITEM: NUMBER OF ATOMS
8043
ITEM: BOX BOUNDS pp pp pp
0.0000000000000000e+00 1.0000000000000000e+03
0.0000000000000000e+00 1.0000000000000000e+03
0.0000000000000000e+00 1.0000000000000000e+03
ITEM: ATOMS id type x y z ix iy iz vx vy vz
4459 1 526.685 2.79652 1.14319 0 0 0 0 0 0
3770 1 903.196 22.6694 4.29441 0 0 0 0 0 0
2722 1 423.818 111.323 2.78062 0 0 0 0 0 0
5479 1 222.177 132.445 4.48753 0 0 0 0 0 0
6811 1 429.71 144.047 1.05251 0 0 0 0 0 0
4178 1 116.867 189.505 2.88453 0 0 0 0 0 0
1097 1 764.516 221.337 3.06238 0 0 0 0 0 0
6567 1 185.949 252.038 2.14615 0 0 0 0 0 0
5232 1 409.669 305.825 0.928837 0 0 0 0 0 0
4372 1 624.641 334.206 2.35724 0 0 0 0 0 0
843 1 820.928 342.536 1.88278 0 0 0 0 0 0
7661 1 508.742 431.666 3.4968 0 0 0 0 0 0
2556 1 762.448 458.976 4.08024 0 0 0 0 0 0
7515 1 605.79 516.987 0.358643 0 0 0 0 0 0
3425 1 21.8672 521.925 1.57951 0 0 0 0 0 0
2512 1 541.77 535.61 2.86453 0 0 0 0 0 0
337 1 794.946 656.512 0.541049 0 0 0 0 0 0
3833 1 742.47 687.214 0.657901 0 0 0 0 0 0
4656 1 700.881 700.839 1.20073 0 0 0 0 0 0
4327 1 379.232 745.404 4.22651 0 0 0 0 0 0
6530 1 401.008 747.01 1.23249 0 0 0 0 0 0
7577 1 989.633 758.732 0.502747 0 0 0 0 0 0
7200 1 987.255 797.525 0.377384 0 0 0 0 0 0
2856 1 998.681 832.153 2.74716 0 0 0 0 0 0
2391 1 383.641 853.216 4.77627 0 0 0 0 0 0
6150 1 943.705 854.763 4.24105 0 0 0 0 0 0
1535 1 545.361 887.428 4.69781 0 0 0 0 0 0
927 1 521.503 894.806 0.691311 0 0 0 0 0 0
946 1 884.449 926.578 3.43753 0 0 0 0 0 0
5319 1 72.4074 950.378 3.64496 0 0 0 0 0 0
690 1 612.957 975.962 1.23008 0 0 0 0 0 0
5377 1 739.394 996.252 3.62854 0 0 0 0 0 0
6883 1 545.786 17.1957 8.93172 0 0 0 0 0 0
6569 1 111.562 28.5006 9.84693 0 0 0 0 0 0
3911 1 981.141 30.4641 9.56856 0 0 0 0 0 0
4519 1 607.667 65.1519 8.20384 0 0 0 0 0 0
3935 1 408.408 117.809 8.60037 0 0 0 0 0 0
5341 1 27.9137 145.178 7.72679 0 0 0 0 0 0
6258 1 777.067 170.108 8.79351 0 0 0 0 0 0
5249 1 207.726 247.219 6.62806 0 0 0 0 0 0
5370 1 499.033 253.228 8.28692 0 0 0 0 0 0
6391 1 505.7 295.711 8.71361 0 0 0 0 0 0
4350 1 21.0225 325.103 5.40809 0 0 0 0 0 0
1710 1 362.785 333.671 7.9728 0 0 0 0 0 0
7643 1 169.474 354.139 10.0308 0 0 0 0 0 0
2565 1 759.527 369.906 7.79466 0 0 0 0 0 0
3301 1 124.851 378.593 7.00705 0 0 0 0 0 0
6919 1 293.234 390.492 6.00724 0 0 0 0 0 0
7195 1 524.567 403.523 8.78597 0 0 0 0 0 0
6112 1 747.392 420.123 9.85757 0 0 0 0 0 0
2508 1 197.269 499.257 9.84643 0 0 0 0 0 0
3262 1 185.31 512.882 6.16302 0 0 0 0 0 0
773 1 582.467 524.306 7.36516 0 0 0 0 0 0
2087 1 344.416 597.906 5.24633 0 0 0 0 0 0
6947 1 637.211 597.966 9.44777 0 0 0 0 0 0
2132 1 614.483 620.04 6.30468 0 0 0 0 0 0
5545 1 876.935 642.233 6.86865 0 0 0 0 0 0
6976 1 464.668 671.685 9.08722 0 0 0 0 0 0
807 1 522.504 717.023 5.5843 0 0 0 0 0 0
4516 1 780.315 757.899 8.11281 0 0 0 0 0 0
2301 1 403.509 773.369 9.05298 0 0 0 0 0 0
600 1 252.501 780.211 7.2967 0 0 0 0 0 0
1870 1 482.051 835.724 5.36802 0 0 0 0 0 0
2642 1 554.285 864.283 6.5655 0 0 0 0 0 0
7480 1 283.684 870.054 5.94433 0 0 0 0 0 0
3351 1 371.207 884.156 8.70711 0 0 0 0 0 0
7073 1 706.604 899.745 7.91501 0 0 0 0 0 0
4190 1 75.8008 984.59 5.54657 0 0 0 0 0 0
6871 1 274.173 33.9152 12.3877 0 0 0 0 0 0
7981 1 191.471 47.3026 14.0237 0 0 0 0 0 0
3408 1 859.169 57.7148 13.0178 0 0 0 0 0 0
1995 1 438.333 65.5685 10.1981 0 0 0 0 0 0
319 1 680.316 78.7774 11.4702 0 0 0 0 0 0
5965 1 305.772 104.183 11.1959 0 0 0 0 0 0
3797 1 790.868 115.964 10.9736 0 0 0 0 0 0
5931 1 316.601 120.903 13.9867 0 0 0 0 0 0
4127 1 150.007 167.669 14.0678 0 0 0 0 0 0
7102 1 516.7 184.567 12.0727 0 0 0 0 0 0
7993 1 251.814 240.496 10.9644 0 0 0 0 0 0
1163 1 891.192 268.52 12.0564 0 0 0 0 0 0
7512 1 100.927 272.982 14.1487 0 0 0 0 0 0
7181 1 130.974 272.863 13.0243 0 0 0 0 0 0
7658 1 106.878 306.48 12.466 0 0 0 0 0 0
110 1 472.505 393.706 13.9423 0 0 0 0 0 0
6983 1 296.329 405.129 11.3408 0 0 0 0 0 0
7093 1 184.591 417.267 12.2767 0 0 0 0 0 0
121 1 285.266 469.27 14.2217 0 0 0 0 0 0
5243 1 368.386 466.235 13.2482 0 0 0 0 0 0
2778 1 933.093 488.904 11.9389 0 0 0 0 0 0
414 1 263.73 506.813 11.9875 0 0 0 0 0 0
6226 1 872.821 506.873 13.8645 0 0 0 0 0 0
732 1 412.657 522.878 12.4683 0 0 0 0 0 0
3940 1 453.117 529.72 10.3442 0 0 0 0 0 0
5034 1 895.733 578.391 10.8292 0 0 0 0 0 0
1780 1 160.087 585.531 11.6569 0 0 0 0 0 0
3290 1 486.56 613.793 11.4366 0 0 0 0 0 0
1664 1 26.9898 617.184 12.2457 0 0 0 0 0 0
3954 1 151.819 627.061 10.9777 0 0 0 0 0 0
7741 1 300.457 773.786 14.2717 0 0 0 0 0 0
1830 1 986.421 779.378 11.9093 0 0 0 0 0 0
8008 1 128.149 800.917 12.2138 0 0 0 0 0 0
2284 1 974.939 803.832 10.4978 0 0 0 0 0 0
7317 1 657.573 825.074 11.2864 0 0 0 0 0 0
1010 1 604.024 831.083 14.5887 0 0 0 0 0 0
1434 1 15.3421 854.347 11.4271 0 0 0 0 0 0
4236 1 893.312 891.593 10.8273 0 0 0 0 0 0
6045 1 765.034 921.105 13.749 0 0 0 0 0 0
1490 1 56.3413 928.007 10.7157 0 0 0 0 0 0
1660 1 626.819 945.5 14.5615 0 0 0 0 0 0
3046 1 902.3 954.365 12.3377 0 0 0 0 0 0
7174 1 63.4245 975.309 14.5886 0 0 0 0 0 0
4507 1 293.21 984.233 10.9625 0 0 0 0 0 0
2252 1 941.095 984.293 10.476 0 0 0 0 0 0
4406 1 960.737 111.145 16.5199 0 0 0 0 0 0
5337 1 912.842 141.847 17.5681 0 0 0 0 0 0
2498 1 765.999 152.854 18.6777 0 0 0 0 0 0
1650 1 298.755 175.88 17.1962 0 0 0 0 0 0
7469 1 602.499 200.929 15.2393 0 0 0 0 0 0
6844 1 501.233 215.269 18.0046 0 0 0 0 0 0
2860 1 980.438 219.612 18.1038 0 0 0 0 0 0
3269 1 168.934 275.66 17.3137 0 0 0 0 0 0
4304 1 746.313 279.765 16.0721 0 0 0 0 0 0
7903 1 51.0098 321.236 19.8788 0 0 0 0 0 0
5472 1 187.204 330.102 20.089 0 0 0 0 0 0
3084 1 636.6 338.848 15.2382 0 0 0 0 0 0
7682 1 845.383 350.391 19.5448 0 0 0 0 0 0
5090 1 43.039 356.757 18.7382 0 0 0 0 0 0
3803 1 980.15 381.39 15.1627 0 0 0 0 0 0
989 1 317.867 397.216 15.641 0 0 0 0 0 0
6220 1 963.313 394.896 16.9212 0 0 0 0 0 0
6415 1 65.0563 400.965 18.6805 0 0 0 0 0 0
4774 1 586.507 425.181 18.8943 0 0 0 0 0 0
1381 1 823.495 473.673 15.4153 0 0 0 0 0 0
7136 1 649.461 497.532 16.545 0 0 0 0 0 0
6285 1 882.936 504.136 16.9854 0 0 0 0 0 0
6390 1 957.728 541.264 18.4153 0 0 0 0 0 0
4782 1 847.477 553.282 17.5459 0 0 0 0 0 0
890 1 744.783 564.766 15.5614 0 0 0 0 0 0
815 1 913.761 573.631 19.0195 0 0 0 0 0 0
4446 1 249.276 585.531 19.538 0 0 0 0 0 0
3567 1 585.804 606.534 15.7926 0 0 0 0 0 0
7464 1 76.7903 615.28 17.6881 0 0 0 0 0 0
358 1 95.4138 619.743 18.5126 0 0 0 0 0 0
4837 1 318.714 628.311 15.7867 0 0 0 0 0 0
6499 1 713.796 762.302 17.9076 0 0 0 0 0 0
4269 1 926.39 829.477 19.2107 0 0 0 0 0 0
7459 1 179.916 844.887 17.4051 0 0 0 0 0 0
1033 1 615.092 846.255 15.6529 0 0 0 0 0 0
233 1 851.9 881.063 19.1692 0 0 0 0 0 0
3920 1 347.411 935.266 15.6652 0 0 0 0 0 0
5295 1 71.0981 945.5 17.7546 0 0 0 0 0 0
353 1 218.597 957.519 19.7419 0 0 0 0 0 0
6047 1 64.6778 40.3417 22.1141 0 0 0 0 0 0
3776 1 880.471 71.1025 20.4218 0 0 0 0 0 0
3980 1 915.815 105.255 20.9316 0 0 0 0 0 0
6394 1 41.9534 111.503 23.9783 0 0 0 0 0 0
3836 1 92.1709 116.798 20.3545 0 0 0 0 0 0
4779 1 912.668 203.131 25.036 0 0 0 0 0 0
1179 1 1.79774 214.614 21.0479 0 0 0 0 0 0
2697 1 937.123 224.432 24.618 0 0 0 0 0 0
3447 1 993.829 284.407 23.8816 0 0 0 0 0 0
2263 1 131.334 335.278 25.2491 0 0 0 0 0 0
2153 1 910.534 340.336 23.8142 0 0 0 0 0 0
170 1 572.758 348.428 25.012 0 0 0 0 0 0
2188 1 624.047 362.707 21.8619 0 0 0 0 0 0
1196 1 769.88 373.417 20.8259 0 0 0 0 0 0
5806 1 445.849 381.509 24.8178 0 0 0 0 0 0
3484 1 333.754 409.652 22.1661 0 0 0 0 0 0
6899 1 4.90629 459.988 23.4515 0 0 0 0 0 0
6486 1 633.515 482.241 20.9228 0 0 0 0 0 0
566 1 549.503 503.006 24.8446 0 0 0 0 0 0
3982 1 408.552 536.564 25.1016 0 0 0 0 0 0
972 1 122.068 599.335 21.2117 0 0 0 0 0 0
1207 1 239.521 637.057 21.3528 0 0 0 0 0 0
7230 1 744.252 651.04 24.8225 0 0 0 0 0 0
4116 1 752.166 660.084 24.3244 0 0 0 0 0 0
1696 1 52.0456 729.578 21.2636 0 0 0 0 0 0
6071 1 767.048 770.395 25.1396 0 0 0 0 0 0
2459 1 530.004 776.94 24.5404 0 0 0 0 0 0
1406 1 947.688 793.778 21.6074 0 0 0 0 0 0
2544 1 984.637 798.538 24.5932 0 0 0 0 0 0
1665 1 812.983 804.547 20.9693 0 0 0 0 0 0
4633 1 978.632 859.881 23.3882 0 0 0 0 0 0
3602 1 81.9821 872.317 23.7774 0 0 0 0 0 0
6972 1 756.583 888.798 20.6254 0 0 0 0 0 0
2557 1 576.659 904.922 23.6407 0 0 0 0 0 0
2640 1 305.641 915.156 23.3901 0 0 0 0 0 0
4227 1 724.396 925.866 21.4619 0 0 0 0 0 0
3216 1 795.916 964.6 25.0553 0 0 0 0 0 0
2240 1 571.844 976.499 24.5642 0 0 0 0 0 0
563 1 898.435 991.196 24.9659 0 0 0 0 0 0
7489 1 823.589 67.1762 29.8458 0 0 0 0 0 0
194 1 637.002 91.9871 26.4933 0 0 0 0 0 0
51 1 366.287 185.698 28.8509 0 0 0 0 0 0
7893 1 425.966 215.209 25.5662 0 0 0 0 0 0
5166 1 886.728 236.867 27.9186 0 0 0 0 0 0
2187 1 292.039 305.47 28.7752 0 0 0 0 0 0
3180 1 278.894 368.419 25.5309 0 0 0 0 0 0
2606 1 419.193 370.502 29.437 0 0 0 0 0 0
7103 1 906.371 380.022 27.1752 0 0 0 0 0 0
4301 1 418.126 441.722 28.2163 0 0 0 0 0 0
6722 1 579.432 520.202 29.6988 0 0 0 0 0 0
7499 1 155.502 522.403 26.9264 0 0 0 0 0 0
1012 1 389.393 524.842 25.4322 0 0 0 0 0 0
3 1 338.942 596.658 28.1271 0 0 0 0 0 0
5625 1 364.946 647.946 29.5792 0 0 0 0 0 0
5445 1 34.4298 662.107 26.9953 0 0 0 0 0 0
5860 1 786.379 663.832 27.63 0 0 0 0 0 0
8040 1 307.771 707.326 27.6117 0 0 0 0 0 0
752 1 350.611 714.882 28.3674 0 0 0 0 0 0
6464 1 206.155 842.567 27.7639 0 0 0 0 0 0
7101 1 41.5813 856.371 25.2583 0 0 0 0 0 0
7303 1 959.831 882.431 26.0573 0 0 0 0 0 0
5293 1 529.539 960.197 27.8766 0 0 0 0 0 0
6563 1 603.616 967.991 28.948 0 0 0 0 0 0
7969 1 584.517 977.095 29.1373 0 0 0 0 0 0
4677 1 898.672 978.582 28.8069 0 0 0 0 0 0
3650 1 867.734 997.324 28.1874 0 0 0 0 0 0
4745 1 366.815 51.4092 35.2594 0 0 0 0 0 0
6141 1 670.498 61.1668 30.6601 0 0 0 0 0 0
1312 1 711.02 108.29 31.336 0 0 0 0 0 0
6497 1 703.226 115.906 31.3939 0 0 0 0 0 0
3275 1 997.389 114.894 30.5711 0 0 0 0 0 0
4215 1 920.874 124.771 31.0797 0 0 0 0 0 0
556 1 804.078 144.942 34.8817 0 0 0 0 0 0
6858 1 629.092 156.425 35.2843 0 0 0 0 0 0
3694 1 240.093 247.22 33.7073 0 0 0 0 0 0
3720 1 893.631 256.264 34.6257 0 0 0 0 0 0
7140 1 784.572 303.804 34.4784 0 0 0 0 0 0
4902 1 175.126 349.083 32.6438 0 0 0 0 0 0
3810 1 701.398 396.444 33.784 0 0 0 0 0 0
3054 1 494.401 402.87 32.0605 0 0 0 0 0 0
4596 1 906.967 401.382 34.9188 0 0 0 0 0 0
4498 1 262.359 460.167 31.1174 0 0 0 0 0 0
2965 1 834.858 464.154 35.3178 0 0 0 0 0 0
6365 1 818.677 496.938 33.5727 0 0 0 0 0 0
1997 1 875.32 500.627 35.2596 0 0 0 0 0 0
344 1 960.703 527.877 31.3207 0 0 0 0 0 0
40 1 878.06 551.617 35.2548 0 0 0 0 0 0
2015 1 752.874 558.043 31.3712 0 0 0 0 0 0
2245 1 205.546 603.798 31.8035 0 0 0 0 0 0
3667 1 708.55 605.821 31.516 0 0 0 0 0 0
1164 1 631.321 615.995 33.732 0 0 0 0 0 0
5040 1 172.528 670.139 31.6302 0 0 0 0 0 0
447 1 491.027 693.225 33.7709 0 0 0 0 0 0
1938 1 864.206 715.121 32.7841 0 0 0 0 0 0
7041 1 470.443 733.268 31.5752 0 0 0 0 0 0
2651 1 762.346 752.248 32.4687 0 0 0 0 0 0
4252 1 551.842 807.166 33.042 0 0 0 0 0 0
2541 1 200.679 814.663 32.9382 0 0 0 0 0 0
3665 1 481.218 829.418 33.5734 0 0 0 0 0 0
3736 1 784.902 853.694 31.571 0 0 0 0 0 0
462 1 317.719 896.652 34.6403 0 0 0 0 0 0
4772 1 778.657 896.533 32.2794 0 0 0 0 0 0
257 1 95.6116 944.549 33.2094 0 0 0 0 0 0
2511 1 385.729 950.499 31.8642 0 0 0 0 0 0
1117 1 472.421 979.356 31.0202 0 0 0 0 0 0
3398 1 610.995 999.407 31.6709 0 0 0 0 0 0
4152 1 475.577 19.7558 36.5568 0 0 0 0 0 0
6272 1 500.212 58.4897 35.744 0 0 0 0 0 0
5642 1 800.922 92.5828 39.6049 0 0 0 0 0 0
928 1 618.856 106.446 38.0137 0 0 0 0 0 0
4445 1 189.512 126.854 38.8677 0 0 0 0 0 0
498 1 399.485 139.944 38.358 0 0 0 0 0 0
4636 1 580.362 150.713 38.6668 0 0 0 0 0 0
4551 1 422.631 153.807 39.193 0 0 0 0 0 0
6603 1 126.863 179.57 35.6315 0 0 0 0 0 0
6657 1 255.738 192.065 37.1385 0 0 0 0 0 0
3556 1 797.419 226.813 38.3709 0 0 0 0 0 0
7696 1 743.872 258.704 37.1386 0 0 0 0 0 0
3617 1 648.317 263.345 38.4131 0 0 0 0 0 0
6757 1 528.369 292.797 38.5577 0 0 0 0 0 0
4926 1 151.683 340.337 36.9625 0 0 0 0 0 0
1099 1 690.033 386.091 39.4375 0 0 0 0 0 0
5003 1 671.114 417.566 39.5763 0 0 0 0 0 0
2839 1 949.929 454.932 38.8643 0 0 0 0 0 0
1543 1 86.4219 492.952 37.8952 0 0 0 0 0 0
2413 1 306.512 543.704 38.5688 0 0 0 0 0 0
7160 1 813.507 608.32 37.3225 0 0 0 0 0 0
5807 1 112.133 625.515 38.7174 0 0 0 0 0 0
1683 1 603.714 622.54 38.126 0 0 0 0 0 0
4325 1 185.974 660.739 36.9808 0 0 0 0 0 0
3183 1 322.766 722.677 36.0521 0 0 0 0 0 0
4535 1 610.981 757.603 40.1684 0 0 0 0 0 0
4044 1 125.827 770.931 35.8107 0 0 0 0 0 0
2998 1 195.262 773.013 35.561 0 0 0 0 0 0
1006 1 896.341 801.038 38.9461 0 0 0 0 0 0
394 1 257.383 843.817 36.3922 0 0 0 0 0 0
6519 1 610.394 884.991 39.6263 0 0 0 0 0 0
6963 1 136.961 896.415 39.8032 0 0 0 0 0 0
1700 1 74.4279 909.98 40.1595 0 0 0 0 0 0
720 1 396.499 951.034 36.7047 0 0 0 0 0 0
2723 1 733.92 987.389 40.2414 0 0 0 0 0 0
5586 1 581.664 27.372 40.974 0 0 0 0 0 0
4021 1 386.448 32.6676 43.8305 0 0 0 0 0 0
264 1 961.507 41.4733 41.6628 0 0 0 0 0 0
4829 1 1.25265 53.2542 43.1544 0 0 0 0 0 0
1174 1 432.8 66.9983 41.198 0 0 0 0 0 0
4355 1 534.13 127.806 42.0789 0 0 0 0 0 0
7776 1 137.036 171.479 44.7096 0 0 0 0 0 0
163 1 782.306 217.412 43.0405 0 0 0 0 0 0
4217 1 687.941 223.005 42.6268 0 0 0 0 0 0
7354 1 825.683 247.043 43.6742 0 0 0 0 0 0
2339 1 718.049 252.993 45.1779 0 0 0 0 0 0
7635 1 407.41 337.838 44.6878 0 0 0 0 0 0
1461 1 491.781 356.283 43.4488 0 0 0 0 0 0
5837 1 377.126 360.15 44.2239 0 0 0 0 0 0
5142 1 905.718 408.047 45.0704 0 0 0 0 0 0
6363 1 433.416 424.29 45.4221 0 0 0 0 0 0
7768 1 591.387 439.7 42.9826 0 0 0 0 0 0
1727 1 696.524 480.279 45.0794 0 0 0 0 0 0
6992 1 147.171 504.673 44.311 0 0 0 0 0 0
3801 1 978.017 532.697 45.0351 0 0 0 0 0 0
3958 1 91.7199 536.208 44.9102 0 0 0 0 0 0
2717 1 446.515 581.427 45.0023 0 0 0 0 0 0
5 1 976.592 584.461 42.5087 0 0 0 0 0 0
6245 1 96.3043 587.079 41.4645 0 0 0 0 0 0
5039 1 674.635 588.448 41.4811 0 0 0 0 0 0
5076 1 385.529 591.006 41.6904 0 0 0 0 0 0
7709 1 742.408 653.123 44.2483 0 0 0 0 0 0
1510 1 634.123 710.718 44.6918 0 0 0 0 0 0
1031 1 290.457 717.204 41.8634 0 0 0 0 0 0
3222 1 934.478 765.755 45.3094 0 0 0 0 0 0
6979 1 596.167 777.952 40.5307 0 0 0 0 0 0
1910 1 296.711 824.302 42.1003 0 0 0 0 0 0
3973 1 961.851 835.428 44.6786 0 0 0 0 0 0
5875 1 63.774 849.648 42.2264 0 0 0 0 0 0
6528 1 801.385 873.27 41.6787 0 0 0 0 0 0
2991 1 599.212 957.758 41.5408 0 0 0 0 0 0
6617 1 291.842 989.828 44.8283 0 0 0 0 0 0
2129 1 793.062 988.995 41.4267 0 0 0 0 0 0
1940 1 20.5876 15.8297 50.4653 0 0 0 0 0 0
5462 1 740.767 75.4477 50.1595 0 0 0 0 0 0
5522 1 49.748 113.944 49.9781 0 0 0 0 0 0
1449 1 830.435 118.287 49.8661 0 0 0 0 0 0
7267 1 714.357 204.441 45.4885 0 0 0 0 0 0
1915 1 878.281 276.852 49.3441 0 0 0 0 0 0
6193 1 313.339 286.848 46.6257 0 0 0 0 0 0
292 1 601.138 327.128 46.4203 0 0 0 0 0 0
2905 1 737.451 342.479 47.0657 0 0 0 0 0 0
1924 1 485.236 359.496 47.7759 0 0 0 0 0 0
7664 1 936.298 359.079 48.3878 0 0 0 0 0 0
7129 1 146.271 377.108 48.2224 0 0 0 0 0 0
349 1 686.225 389.127 49.7009 0 0 0 0 0 0
5839 1 194.169 405.965 49.742 0 0 0 0 0 0
4721 1 71.4249 438.868 48.9413 0 0 0 0 0 0
4956 1 510.587 442.378 48.3546 0 0 0 0 0 0
597 1 318.289 481.528 48.4013 0 0 0 0 0 0
4107 1 651.96 489.501 47.3244 0 0 0 0 0 0
3239 1 927.085 518.418 46.5495 0 0 0 0 0 0
1515 1 419.917 536.922 45.6927 0 0 0 0 0 0
5299 1 495.837 539.064 46.1069 0 0 0 0 0 0
5326 1 622.868 547.334 47.5825 0 0 0 0 0 0
582 1 566.524 561.733 50.2839 0 0 0 0 0 0
3446 1 5.44877 577.56 47.4204 0 0 0 0 0 0
4497 1 981.888 583.272 46.4248 0 0 0 0 0 0
8031 1 731.995 640.331 49.5959 0 0 0 0 0 0
1367 1 338.946 657.884 48.2437 0 0 0 0 0 0
7526 1 897.227 686.205 46.6603 0 0 0 0 0 0
8024 1 59.0651 706.851 47.2038 0 0 0 0 0 0
7737 1 178.482 754.986 49.3755 0 0 0 0 0 0
4680 1 161.645 774.323 46.7863 0 0 0 0 0 0
5834 1 337.589 865.594 45.4883 0 0 0 0 0 0
2816 1 7.43281 923.309 49.0596 0 0 0 0 0 0
1042 1 631.638 947.287 48.864 0 0 0 0 0 0
1055 1 964.478 984.236 48.3413 0 0 0 0 0 0
15 1 257.988 8.98739 50.9929 0 0 0 0 0 0
7385 1 523.836 110.433 53.4292 0 0 0 0 0 0
4654 1 198.854 131.437 55.2875 0 0 0 0 0 0
2322 1 135.786 148.513 52.7953 0 0 0 0 0 0
1247 1 398.415 153.273 52.1184 0 0 0 0 0 0
239 1 734.348 185.402 53.9879 0 0 0 0 0 0
5079 1 815.386 184.926 53.4898 0 0 0 0 0 0
2841 1 846.802 197.659 53.0663 0 0 0 0 0 0
2161 1 620.29 207.179 54.342 0 0 0 0 0 0
7725 1 400.501 215.211 54.555 0 0 0 0 0 0
1290 1 442.271 254.48 51.3355 0 0 0 0 0 0
6642 1 327.142 281.791 53.8129 0 0 0 0 0 0
7363 1 579.897 336.53 54.8598 0 0 0 0 0 0
4917 1 521.115 379.964 52.0096 0 0 0 0 0 0
398 1 657.071 400.551 53.071 0 0 0 0 0 0
4690 1 878.23 405.073 55.1229 0 0 0 0 0 0
1771 1 109.384 421.911 51.8534 0 0 0 0 0 0
1943 1 539.205 421.911 55.5239 0 0 0 0 0 0
7550 1 224.277 431.014 51.9487 0 0 0 0 0 0
4580 1 416.638 437.083 55.0463 0 0 0 0 0 0
7729 1 324.953 483.016 53.8937 0 0 0 0 0 0
359 1 141.106 563.459 52.4448 0 0 0 0 0 0
3443 1 547.724 599.099 53.986 0 0 0 0 0 0
3130 1 572.536 615.461 51.588 0 0 0 0 0 0
2782 1 110.467 625.873 53.243 0 0 0 0 0 0
5671 1 224.648 655.92 51.7309 0 0 0 0 0 0
2989 1 926.32 656.813 54.7242 0 0 0 0 0 0
3809 1 513.397 663.536 52.2819 0 0 0 0 0 0
1366 1 116.125 705.186 53.2123 0 0 0 0 0 0
1333 1 969.044 722.976 54.8288 0 0 0 0 0 0
369 1 121.719 733.745 52.821 0 0 0 0 0 0
4795 1 143.02 738.743 51.7161 0 0 0 0 0 0
181 1 247.025 744.276 54.7004 0 0 0 0 0 0
6638 1 221.024 752.844 54.2519 0 0 0 0 0 0
1071 1 532.563 780.154 52.9258 0 0 0 0 0 0
1342 1 124.698 803.24 50.9029 0 0 0 0 0 0
6958 1 414.459 813.533 54.6658 0 0 0 0 0 0
7117 1 323.903 844.235 53.8748 0 0 0 0 0 0
3674 1 398.277 846.317 52.9208 0 0 0 0 0 0
5630 1 203.597 849.59 50.8054 0 0 0 0 0 0
936 1 749.977 870.771 53.5911 0 0 0 0 0 0
4315 1 224.306 905.816 54.942 0 0 0 0 0 0
4600 1 660.85 909.862 54.7661 0 0 0 0 0 0
1638 1 632.769 951.214 53.7309 0 0 0 0 0 0
2074 1 927.709 9.04742 60.0701 0 0 0 0 0 0
6129 1 650.742 26.1831 59.5646 0 0 0 0 0 0
2152 1 813.652 56.1111 59.0177 0 0 0 0 0 0
2875 1 919.383 65.2143 57.2504 0 0 0 0 0 0
4953 1 483.435 83.7186 58.9137 0 0 0 0 0 0
231 1 645.808 96.5109 58.8332 0 0 0 0 0 0
1641 1 918.849 103.294 56.8122 0 0 0 0 0 0
2641 1 116.743 107.816 55.8431 0 0 0 0 0 0
7482 1 506.7 114.539 57.7443 0 0 0 0 0 0
1750 1 40.5859 126.677 60.0968 0 0 0 0 0 0
90 1 958.716 132.032 56.2995 0 0 0 0 0 0
6241 1 64.7432 139.172 59.1072 0 0 0 0 0 0
4904 1 292.863 145.3 60.2782 0 0 0 0 0 0
2288 1 556.503 148.989 56.2127 0 0 0 0 0 0
2092 1 313.51 156.902 58.1424 0 0 0 0 0 0
3059 1 530.505 197.064 58.5188 0 0 0 0 0 0
2971 1 863.283 197.778 60.2326 0 0 0 0 0 0
4801 1 458.215 222.649 57.9353 0 0 0 0 0 0
2628 1 720.43 271.973 57.2553 0 0 0 0 0 0
4018 1 350.112 327.605 58.4858 0 0 0 0 0 0
2236 1 214.221 417.627 58.7887 0 0 0 0 0 0
7498 1 441.452 482.481 57.8423 0 0 0 0 0 0
4806 1 238.204 487.36 60.2306 0 0 0 0 0 0
1018 1 296.041 552.749 56.5409 0 0 0 0 0 0
5724 1 75.42 584.522 58.528 0 0 0 0 0 0
1132 1 173.656 630.395 55.6393 0 0 0 0 0 0
5407 1 665.358 663.536 57.549 0 0 0 0 0 0
2305 1 622.519 675.734 58.1705 0 0 0 0 0 0
7362 1 226.614 695.666 57.3916 0 0 0 0 0 0
3715 1 564.866 698.106 60.0297 0 0 0 0 0 0
6742 1 48.4757 730.949 56.7337 0 0 0 0 0 0
1880 1 162.775 761.948 58.4405 0 0 0 0 0 0
3260 1 122.795 817.103 56.8954 0 0 0 0 0 0
1577 1 886.648 895.404 56.4175 0 0 0 0 0 0
2823 1 248.941 958.473 59.8544 0 0 0 0 0 0
1457 1 690.782 972.396 58.027 0 0 0 0 0 0
2814 1 26.7749 5.00158 61.5061 0 0 0 0 0 0
8027 1 201.643 21.8993 61.5145 0 0 0 0 0 0
6229 1 6.30993 50.9349 62.8736 0 0 0 0 0 0
2786 1 633.49 64.2031 61.5069 0 0 0 0 0 0
2397 1 992.033 97.9988 65.0222 0 0 0 0 0 0
4565 1 164.283 111.088 61.9689 0 0 0 0 0 0
246 1 333.026 167.137 63.9963 0 0 0 0 0 0
630 1 404.011 209.381 64.7413 0 0 0 0 0 0
1237 1 487.25 207.596 65.4227 0 0 0 0 0 0
3233 1 563.886 234.43 64.2871 0 0 0 0 0 0
3259 1 624.338 248.412 64.5637 0 0 0 0 0 0
156 1 465.418 286.313 62.932 0 0 0 0 0 0
2096 1 962.892 325.939 61.3012 0 0 0 0 0 0
5261 1 560.322 333.02 62.1615 0 0 0 0 0 0
4558 1 748.518 339.862 62.7374 0 0 0 0 0 0
228 1 595.668 387.223 62.4845 0 0 0 0 0 0
2604 1 677.42 396.029 62.5317 0 0 0 0 0 0
5615 1 285.976 399.599 61.5602 0 0 0 0 0 0
7225 1 295.08 414.236 61.2823 0 0 0 0 0 0
1355 1 586.745 425.184 61.6498 0 0 0 0 0 0
2718 1 352.855 438.154 61.0488 0 0 0 0 0 0
384 1 27.1577 439.702 63.2372 0 0 0 0 0 0
1528 1 219.341 459.455 60.9752 0 0 0 0 0 0
3722 1 532.841 456.778 63.6173 0 0 0 0 0 0
5660 1 296.99 503.782 64.0845 0 0 0 0 0 0
1671 1 915.602 519.549 62.5293 0 0 0 0 0 0
2300 1 63.1015 546.681 63.9855 0 0 0 0 0 0
4919 1 451.749 546.264 65.5756 0 0 0 0 0 0
1057 1 848.846 547.335 64.4796 0 0 0 0 0 0
8000 1 685.225 568.279 63.9209 0 0 0 0 0 0
3110 1 562.003 590.353 60.8482 0 0 0 0 0 0
7930 1 613.529 586.783 62.7588 0 0 0 0 0 0
1220 1 310.443 615.283 65.1864 0 0 0 0 0 0
3527 1 841.537 711.671 62.7183 0 0 0 0 0 0
1806 1 260.41 718.692 62.1007 0 0 0 0 0 0
1261 1 682.676 739.577 65.1355 0 0 0 0 0 0
6380 1 558.504 784.141 62.182 0 0 0 0 0 0
2696 1 272.376 815.795 62.4107 0 0 0 0 0 0
1893 1 617.115 858.694 63.7752 0 0 0 0 0 0
1817 1 977.68 859.527 64.7037 0 0 0 0 0 0
1642 1 841.844 865.179 65.4548 0 0 0 0 0 0
4192 1 819.714 930.152 62.0482 0 0 0 0 0 0
5980 1 258.225 994.887 62.6541 0 0 0 0 0 0
3919 1 15.3513 8.69091 68.147 0 0 0 0 0 0
2938 1 860.061 38.5595 70.192 0 0 0 0 0 0
856 1 502.117 81.9343 70.3876 0 0 0 0 0 0
7810 1 335.342 96.4521 69.8306 0 0 0 0 0 0
4302 1 230.565 105.555 67.9772 0 0 0 0 0 0
4141 1 394.426 112.993 67.3112 0 0 0 0 0 0
1625 1 403.234 153.095 70.436 0 0 0 0 0 0
4641 1 894.341 183.737 70.6716 0 0 0 0 0 0
442 1 715.309 202.479 68.9877 0 0 0 0 0 0
5268 1 128.293 212.237 67.8163 0 0 0 0 0 0
6585 1 57.3112 229.849 68.075 0 0 0 0 0 0
7078 1 994.778 228.302 68.9624 0 0 0 0 0 0
3353 1 453.755 256.683 70.4534 0 0 0 0 0 0
3248 1 353.857 270.249 66.6305 0 0 0 0 0 0
1056 1 471.546 281.137 66.4514 0 0 0 0 0 0
6822 1 105.51 308.209 66.6645 0 0 0 0 0 0
6625 1 125.383 314.397 65.8462 0 0 0 0 0 0
128 1 581.803 359.2 67.2623 0 0 0 0 0 0
6998 1 737.513 384.427 67.4146 0 0 0 0 0 0
2878 1 774.76 393.65 67.4995 0 0 0 0 0 0
5007 1 863.296 421.198 69.4707 0 0 0 0 0 0
6759 1 80.4679 424.47 65.6649 0 0 0 0 0 0
3987 1 878.35 433.871 69.7921 0 0 0 0 0 0
6422 1 784.285 478.198 70.4517 0 0 0 0 0 0
3716 1 918.878 576.906 66.0616 0 0 0 0 0 0
2465 1 213.28 588.568 67.6733 0 0 0 0 0 0
5077 1 690.402 590.532 67.9036 0 0 0 0 0 0
5210 1 751.271 610.226 66.9343 0 0 0 0 0 0
2522 1 536.718 611.654 69.1097 0 0 0 0 0 0
7538 1 176.573 660.979 70.0341 0 0 0 0 0 0
5632 1 158.308 681.506 67.7314 0 0 0 0 0 0
7024 1 498.346 692.93 67.5718 0 0 0 0 0 0
3075 1 529.286 713.992 69.3818 0 0 0 0 0 0
7844 1 197.999 773.015 66.8665 0 0 0 0 0 0
4428 1 371.082 775.99 69.3284 0 0 0 0 0 0
4709 1 750.21 776.466 65.9994 0 0 0 0 0 0
4668 1 289.569 790.924 66.1481 0 0 0 0 0 0
1939 1 1.71417 810.024 65.7476 0 0 0 0 0 0
4016 1 678.218 815.498 67.8958 0 0 0 0 0 0
6325 1 748.071 828.23 66.7445 0 0 0 0 0 0
3322 1 976.726 826.505 67.2915 0 0 0 0 0 0
3104 1 339.911 887.253 65.6848 0 0 0 0 0 0
3422 1 883.971 908.197 67.2001 0 0 0 0 0 0
1854 1 648.594 920.989 69.9684 0 0 0 0 0 0
7490 1 618.49 965.971 67.89 0 0 0 0 0 0
5655 1 778.425 997.029 66.2615 0 0 0 0 0 0
4595 1 382.403 43.8552 73.7137 0 0 0 0 0 0
361 1 534.246 68.4877 72.7913 0 0 0 0 0 0
1170 1 567.685 77.8885 71.847 0 0 0 0 0 0
6922 1 48.5565 88.7769 73.7498 0 0 0 0 0 0
3724 1 968.412 95.9169 74.5852 0 0 0 0 0 0
2700 1 765.223 107.697 71.1071 0 0 0 0 0 0
3080 1 831.388 131.735 71.2701 0 0 0 0 0 0
2920 1 245.681 153.274 72.3182 0 0 0 0 0 0
6854 1 681.454 196.946 73.4307 0 0 0 0 0 0
4848 1 707.516 214.736 70.954 0 0 0 0 0 0
6837 1 353.617 235.739 73.7671 0 0 0 0 0 0
2 1 726.082 258.527 71.3595 0 0 0 0 0 0
3595 1 237.656 282.446 74.5461 0 0 0 0 0 0
2147 1 916.897 294.168 75.1547 0 0 0 0 0 0
6061 1 175.543 352.298 70.8435 0 0 0 0 0 0
5192 1 574.61 473.617 73.097 0 0 0 0 0 0
7485 1 621.614 471.415 70.9936 0 0 0 0 0 0
2470 1 144.076 478.258 74.6062 0 0 0 0 0 0
243 1 430.624 492.418 72.758 0 0 0 0 0 0
746 1 959.689 491.883 71.7446 0 0 0 0 0 0
1701 1 960.172 617.485 75.6796 0 0 0 0 0 0
2337 1 919.357 632.181 71.4324 0 0 0 0 0 0
5723 1 179.43 673.117 72.0578 0 0 0 0 0 0
3310 1 977.431 684.66 73.1477 0 0 0 0 0 0
2608 1 918.408 689.836 70.8336 0 0 0 0 0 0
1937 1 952.029 755.583 75.3772 0 0 0 0 0 0
4020 1 161.942 758.617 71.0053 0 0 0 0 0 0
3376 1 792.871 780.81 71.311 0 0 0 0 0 0
3763 1 656.798 803.42 71.6936 0 0 0 0 0 0
4059 1 526.916 881.78 75.0806 0 0 0 0 0 0
6693 1 21.7747 966.685 75.3953 0 0 0 0 0 0
4385 1 306.299 969.66 71.4709 0 0 0 0 0 0
108 1 350.271 10.774 79.1595 0 0 0 0 0 0
3153 1 892.369 51.2334 79.1458 0 0 0 0 0 0
206 1 682.639 106.627 78.0572 0 0 0 0 0 0
7049 1 334.572 145.063 76.4997 0 0 0 0 0 0
2271 1 587.384 160.473 77.9656 0 0 0 0 0 0
2995 1 836.329 175.289 78.3568 0 0 0 0 0 0
6711 1 610.233 180.941 76.1339 0 0 0 0 0 0
6240 1 842.339 184.273 78.1261 0 0 0 0 0 0
115 1 726.317 205.217 78.7021 0 0 0 0 0 0
2848 1 227.299 211.167 75.8073 0 0 0 0 0 0
5331 1 433.582 215.51 76.7988 0 0 0 0 0 0
776 1 183.212 241.69 77.8848 0 0 0 0 0 0
7573 1 662.479 286.314 80.784 0 0 0 0 0 0
3760 1 754.763 294.346 76.1055 0 0 0 0 0 0
6632 1 872.222 436.668 78.7851 0 0 0 0 0 0
3001 1 270.39 441.785 77.8185 0 0 0 0 0 0
5193 1 541.348 440.952 77.1482 0 0 0 0 0 0
724 1 708.482 450.829 79.3552 0 0 0 0 0 0
3181 1 98.2022 484.981 78.4484 0 0 0 0 0 0
44 1 164.782 489.444 78.772 0 0 0 0 0 0
1392 1 285.092 534.365 80.5925 0 0 0 0 0 0
7228 1 359.886 597.672 75.9237 0 0 0 0 0 0
2360 1 439.319 630.635 77.9861 0 0 0 0 0 0
6731 1 631.798 629.266 75.7938 0 0 0 0 0 0
322 1 466.689 645.39 76.696 0 0 0 0 0 0
3347 1 826.244 682.459 80.2951 0 0 0 0 0 0
4634 1 85.0076 722.085 76.2616 0 0 0 0 0 0
5943 1 633.116 786.344 77.0502 0 0 0 0 0 0
6179 1 421.718 819.187 79.3813 0 0 0 0 0 0
7547 1 139.993 858.992 77.9656 0 0 0 0 0 0
1208 1 875.76 893.204 78.4193 0 0 0 0 0 0
4541 1 253.58 925.75 79.0979 0 0 0 0 0 0
99 1 477 930.926 76.1185 0 0 0 0 0 0
7878 1 281.486 942.231 79.4364 0 0 0 0 0 0
5574 1 481.76 942.826 79.4389 0 0 0 0 0 0
4602 1 554.529 969.065 77.2286 0 0 0 0 0 0
7027 1 68.3035 977.454 77.4337 0 0 0 0 0 0
3733 1 321.888 978.525 76.2047 0 0 0 0 0 0
3367 1 260.01 980.251 78.8117 0 0 0 0 0 0
2441 1 820.907 987.986 77.0043 0 0 0 0 0 0
4247 1 637.83 12.4996 81.0543 0 0 0 0 0 0
4843 1 554.478 107.163 83.696 0 0 0 0 0 0
7728 1 644.678 106.984 83.4965 0 0 0 0 0 0
1036 1 230.031 130.486 84.0549 0 0 0 0 0 0
1236 1 674.788 157.618 82.7326 0 0 0 0 0 0
4193 1 844.717 159.403 83.9765 0 0 0 0 0 0
4867 1 345.107 212.535 81.2867 0 0 0 0 0 0
1478 1 802.773 213.131 85.7815 0 0 0 0 0 0
6051 1 518.25 221.52 82.5743 0 0 0 0 0 0
874 1 994.718 229.79 83.3378 0 0 0 0 0 0
7252 1 428.05 236.216 85.3709 0 0 0 0 0 0
1256 1 352.13 244.843 80.9531 0 0 0 0 0 0
1902 1 735.189 325.405 85.8174 0 0 0 0 0 0
5764 1 569.428 373.718 82.7181 0 0 0 0 0 0
1002 1 738.108 389.485 81.9455 0 0 0 0 0 0
7812 1 121.643 446.605 85.1074 0 0 0 0 0 0
3578 1 387.784 477.544 84.1702 0 0 0 0 0 0
7076 1 760.369 516.397 84.4505 0 0 0 0 0 0
2666 1 893.648 537.341 82.7491 0 0 0 0 0 0
4374 1 50.9638 548.289 84.8462 0 0 0 0 0 0
3413 1 973.319 564.115 81.1765 0 0 0 0 0 0
884 1 40.8512 585.892 82.5715 0 0 0 0 0 0
7510 1 33.8924 629.623 81.8591 0 0 0 0 0 0
6508 1 22.4689 634.205 83.808 0 0 0 0 0 0
6890 1 541.241 643.07 84.9182 0 0 0 0 0 0
6873 1 404.935 737.852 84.0275 0 0 0 0 0 0
7520 1 890.269 748.086 82.0786 0 0 0 0 0 0
1758 1 693.566 759.331 82.3925 0 0 0 0 0 0
6589 1 633.117 805.205 83.1196 0 0 0 0 0 0
2193 1 503.887 833.11 81.3106 0 0 0 0 0 0
3085 1 108.041 853.221 83.7052 0 0 0 0 0 0
767 1 234.536 849.592 84.4275 0 0 0 0 0 0
691 1 673.879 880.412 84.1348 0 0 0 0 0 0
5144 1 111.197 884.339 85.425 0 0 0 0 0 0
2891 1 928.595 901.118 84.1135 0 0 0 0 0 0
1178 1 146.779 906.77 85.0837 0 0 0 0 0 0
2388 1 254.175 927.357 85.4642 0 0 0 0 0 0
2985 1 837.207 940.447 85.6276 0 0 0 0 0 0
452 1 73.3598 957.463 84.8273 0 0 0 0 0 0
3976 1 267.208 964.008 82.9915 0 0 0 0 0 0
2054 1 19.5136 965.139 85.1187 0 0 0 0 0 0
3029 1 331.172 999.529 81.0996 0 0 0 0 0 0
7283 1 113.468 63.9666 86.5331 0 0 0 0 0 0
6545 1 861.074 62.9554 90.7661 0 0 0 0 0 0
2486 1 345.873 81.3404 87.8771 0 0 0 0 0 0
4367 1 466.776 109.602 86.8663 0 0 0 0 0 0
5583 1 823.355 128.047 88.0065 0 0 0 0 0 0
2142 1 383.005 164.282 86.7797 0 0 0 0 0 0
6793 1 62.5495 270.25 85.9929 0 0 0 0 0 0
1928 1 611.25 272.213 87.1076 0 0 0 0 0 0
7760 1 391.461 289.825 89.5734 0 0 0 0 0 0
5878 1 908.092 295.537 90.7692 0 0 0 0 0 0
5749 1 281.448 300.297 86.9774 0 0 0 0 0 0
970 1 696.93 302.736 86.5241 0 0 0 0 0 0
201 1 656.352 304.521 87.6819 0 0 0 0 0 0
5346 1 125.74 319.515 89.924 0 0 0 0 0 0
4131 1 149.183 322.431 89.9532 0 0 0 0 0 0
6426 1 696.456 340.697 90.8234 0 0 0 0 0 0
7833 1 561.455 367.947 88.2072 0 0 0 0 0 0
5581 1 101.173 416.677 90.6945 0 0 0 0 0 0
2825 1 515.644 426.613 86.1538 0 0 0 0 0 0
6708 1 603.406 438.573 90.318 0 0 0 0 0 0
5328 1 489.289 479.627 90.4399 0 0 0 0 0 0
89 1 474.893 521.098 87.4611 0 0 0 0 0 0
2232 1 280.45 531.51 90.564 0 0 0 0 0 0
1601 1 766.737 544.54 87.0895 0 0 0 0 0 0
4938 1 289.555 551.085 90.6304 0 0 0 0 0 0
2897 1 762.275 560.605 88.846 0 0 0 0 0 0
1150 1 488.699 572.148 89.0516 0 0 0 0 0 0
8005 1 221.909 627.72 89.7747 0 0 0 0 0 0
4320 1 318.715 644.558 88.2349 0 0 0 0 0 0
5542 1 444.26 678.532 88.5452 0 0 0 0 0 0
4106 1 469.666 682.578 86.7884 0 0 0 0 0 0
7210 1 928.94 694.775 88.6934 0 0 0 0 0 0
4419 1 607.947 758.618 88.2155 0 0 0 0 0 0
2832 1 826.13 764.865 86.0576 0 0 0 0 0 0
2338 1 564.575 808.894 88.3988 0 0 0 0 0 0
606 1 75.3744 817.819 90.6503 0 0 0 0 0 0
7707 1 465.391 830.85 89.8133 0 0 0 0 0 0
7649 1 785.619 901.951 90.3013 0 0 0 0 0 0
577 1 747.659 909.031 86.7005 0 0 0 0 0 0
7415 1 927.645 922.419 90.4888 0 0 0 0 0 0
6613 1 2.31829 963.532 89.044 0 0 0 0 0 0
6566 1 513.891 962.759 90.5091 0 0 0 0 0 0
561 1 527.278 963.949 88.6826 0 0 0 0 0 0
5768 1 704.468 0.838421 91.3387 0 0 0 0 0 0
4115 1 700.723 50.8773 95.3622 0 0 0 0 0 0
4076 1 957.225 85.803 91.3234 0 0 0 0 0 0
3002 1 894.871 90.9202 95.8195 0 0 0 0 0 0
4025 1 87.2915 108.829 93.395 0 0 0 0 0 0
3653 1 673.714 106.449 93.5809 0 0 0 0 0 0
5650 1 509.202 160.237 95.4393 0 0 0 0 0 0