#================================================

region forbox block 0 1000 0 1000 0 1000 units box
#Refers to an abstract geometric region of space. units box refers to the fact that the size of the box is specified in the units as given in the units command. The name "forbox" refers to the region ID so that you can refer to it somewhere else in this input script.
create_box 1 forbox #Create the box
Created orthogonal box = (0.0000000 0.0000000 0.0000000) to (1000.0000 1000.0000 1000.0000)
  1 by 1 by 1 MPI processor grid

#=======================================================================
#lattice fcc 0.0458 # Since we have given fcc as lattice type no need to mention basis for this
#=======================================================================

variable n_atoms equal round(8042.72)
create_atoms 1 random ${n_atoms} 30122 NULL # basis 1 1 basis 2 1 basis 3 1 basis 4 1 units box
create_atoms 1 random 8043 30122 NULL 
Created 8043 atoms
  using lattice units in orthogonal box = (0.0000000 0.0000000 0.0000000) to (1000.0000 1000.0000 1000.0000)
  create_atoms CPU = 0.002 seconds
# create_atoms 1 region forbox qrand 0.03289889035
# set type 1 diameter 1.42
mass 1 39.948 #Mass of atom type 1 is 39.948 [mass units grams/mole]
neighbor 0.1 bin
neigh_modify delay 10 check no

pair_style lj/cut 10
# k_B = 8.6173303e-5 eV/K #How are atoms interacting. Provide the name of the potential and the cooresponding cut-off distance
pair_coeff  1 1 0.0163 3.405 #The coefficient of the lj potential for the interactions of atom type 1 with 1
#=======================================================================
group ar type 1 #Group all the argon types (argon type is of type 1). All atoms of type 1 are in group with the name 'ar'
8043 atoms in group ar
#=======================================================================
dump dump_1 all custom 1 dump_initial_config.dump id type x y z ix iy iz vx vy vz
#=========================================================
run 1
WARNING: No fixes defined, atoms won't move (src/verlet.cpp:55)
Neighbor list info ...
  update every 1 steps, delay 10 steps, check no
  max neighbors/atom: 2000, page size: 100000
  master list distance cutoff = 10.1
  ghost atom cutoff = 10.1
  binsize = 5.05, bins = 199 199 199
  1 neighbor lists, perpetual/occasional/extra = 1 0 0
  (1) pair lj/cut, perpetual
      attributes: half, newton on
      pair build: half/bin/atomonly/newton
      stencil: half/bin/3d
      bin: standard
Per MPI rank memory allocation (min/avg/max) = 36.93 | 36.93 | 36.93 Mbytes
Step Temp E_pair E_mol TotEng Press 
       0            0    22.564256            0    22.564256   0.15331168 
       1            0    22.564256            0    22.564256   0.15331168 
Loop time of 0.0536773 on 1 procs for 1 steps with 8043 atoms

Performance: 1.610 ns/day, 14.910 hours/ns, 18.630 timesteps/s
99.8% CPU use with 1 MPI tasks x 1 OpenMP threads

MPI task timing breakdown:
Section |  min time  |  avg time  |  max time  |%varavg| %total
---------------------------------------------------------------
Pair    | 0.0001345  | 0.0001345  | 0.0001345  |   0.0 |  0.25
Neigh   | 0          | 0          | 0          |   0.0 |  0.00
Comm    | 2.108e-05  | 2.108e-05  | 2.108e-05  |   0.0 |  0.04
Output  | 0.053453   | 0.053453   | 0.053453   |   0.0 | 99.58
Modify  | 6.3e-07    | 6.3e-07    | 6.3e-07    |   0.0 |  0.00
Other   |            | 6.78e-05   |            |       |  0.13

Nlocal:        8043.00 ave        8043 max        8043 min
Histogram: 1 0 0 0 0 0 0 0 0 0
Nghost:        474.000 ave         474 max         474 min
Histogram: 1 0 0 0 0 0 0 0 0 0
Neighs:        133.000 ave         133 max         133 min
Histogram: 1 0 0 0 0 0 0 0 0 0

Total # of neighbors = 133
Ave neighs/atom = 0.016536118
Neighbor list builds = 0
Dangerous builds not checked
undump dump_1 # Stop dumping to this file
#=======================================================
minimize 1e-25 1e-19 10000 10000 #<Minimize the energy using a conjugate gradient step.
WARNING: Using 'neigh_modify every 1 delay 0 check yes' setting during minimization (src/min.cpp:188)
Per MPI rank memory allocation (min/avg/max) = 36.63 | 36.63 | 36.63 Mbytes
Step Temp E_pair E_mol TotEng Press 
       1            0    22.564256            0    22.564256   0.15331168 
   10001            0   -2.0714247            0   -2.0714247 -2.4715331e-06 
Loop time of 23.3481 on 1 procs for 10000 steps with 8043 atoms

99.8% CPU use with 1 MPI tasks x 1 OpenMP threads

Minimization stats:
  Stopping criterion = max force evaluations
  Energy initial, next-to-last, final = 
      22.5642563099002  -2.07142408071237  -2.07142467943205
  Force two-norm initial, final = 116.35781 0.00077391086
  Force max component initial, final = 50.242715 0.00036660982
  Final line search alpha, max atom move = 1.0000000 0.00036660982
  Iterations, force evaluations = 10000 10000

MPI task timing breakdown:
Section |  min time  |  avg time  |  max time  |%varavg| %total
---------------------------------------------------------------
Pair    | 0.48015    | 0.48015    | 0.48015    |   0.0 |  2.06
Neigh   | 18.499     | 18.499     | 18.499     |   0.0 | 79.23
Comm    | 0.52144    | 0.52144    | 0.52144    |   0.0 |  2.23
Output  | 0          | 0          | 0          |   0.0 |  0.00
Modify  | 0          | 0          | 0          |   0.0 |  0.00
Other   |            | 3.848      |            |       | 16.48

Nlocal:        8043.00 ave        8043 max        8043 min
Histogram: 1 0 0 0 0 0 0 0 0 0
Nghost:        474.000 ave         474 max         474 min
Histogram: 1 0 0 0 0 0 0 0 0 0
Neighs:        135.000 ave         135 max         135 min
Histogram: 1 0 0 0 0 0 0 0 0 0

Total # of neighbors = 135
Ave neighs/atom = 0.016784782
Neighbor list builds = 1079
Dangerous builds not checked
print "Finished Minimizing"
Finished Minimizing
#minimize etol ftol maxiter for minimizer maxiter for force_energy valuation
variable ener equal pe
#=========================================================
timestep  0.01
velocity all create 900 102939 #dist gaussian mom yes rot yes
# Set the velocities of all the atoms so that the temperature of the system is T. Make the distribution Gaussian.
# fix 1 all nve #this is equlibration process.
fix 1 all nvt temp 900.0 900.0 1
# fix temperature
print "Fixing"
Fixing
# compute 1 all property/atom vx vy vz
compute 1 all pressure thermo_temp ke
# compute 1 all temp/region forbox

dump dump_1 all custom 100 trj.lammpsdump id type x y z ix iy iz vx vy vz #<Dump all the atoms to the file dump.min>
variable poten equal pe-${ener}
variable poten equal pe--2.07142467943205
thermo_style  custom step time temp pe ke enthalpy press vol v_poten
#What to print in the logfile.txt
#=========================================================
thermo 100 #How frequently to print the thermodynamic information#
run 10000000 # run with active settings as many runs as required. timestep*No. of. steps =10ps
Per MPI rank memory allocation (min/avg/max) = 35.01 | 35.01 | 35.01 Mbytes
Step Time Temp PotEng KinEng Enthalpy Press Volume v_poten 
   10001        0.001          900   -2.0714247    935.55908    1557.1922   0.99928471        1e+09 4.4408921e-15 
   10100        0.991    899.42348   -0.1813796    934.95978    1558.2816   0.99896219        1e+09    1.8900451 
   10200        1.991    906.01597  -0.23766807    941.81274    1569.1838      1.00554        1e+09    1.8337566 
   10300        2.991    911.31801  -0.33440654    947.32427    1578.6702    1.0120633        1e+09    1.7370181 
   10400        3.991    896.29647  -0.34188837    931.70922    1552.3396   0.99490717        1e+09    1.7295363 
   10500        4.991    889.17203  -0.29283153     924.3033    1540.3212   0.98743864        1e+09    1.7785932 
   10600        5.991    901.51243  -0.26835845    937.13126    1561.7431    1.0011684        1e+09    1.8030662 
   10700        6.991    908.39732  0.053569866    944.28817    1575.4717    1.0111816        1e+09    2.1249945 
   10800        7.991    903.37411  -0.30886518     939.0665    1564.7546    1.0029576        1e+09    1.7625595 
   10900        8.991    899.07202   -0.3223145    934.59443    1557.4986   0.99851877        1e+09    1.7491102 
   11000        9.991    897.68806   -0.3243478    933.15579    1554.9138   0.99668574        1e+09    1.7470769 
   11100       10.991    902.14459  -0.23988857     937.7884    1563.1991    1.0024027        1e+09    1.8315361 
   11200       11.991    913.19374  -0.28942877    949.27411    1581.7521    1.0138051        1e+09    1.7819959 
   11300       12.991     904.8272   -0.2841131      940.577    1567.0561    1.0041852        1e+09    1.7873116 
   11400       13.991    889.69242  -0.29726502    924.84424    1540.8299     0.987394        1e+09    1.7741597 
   11500       14.991    895.57883  -0.22482742    930.96322    1551.6556   0.99481898        1e+09    1.8465973 
   11600       15.991    905.59218  -0.22787958    941.37221    1568.4476    1.0050506        1e+09    1.8435451 
   11700       16.991    904.06239  -0.25182195    939.78198    1566.0302    1.0037636        1e+09    1.8196027 
   11800       17.991    900.06313  -0.27224848     935.6247    1558.7333   0.99876607        1e+09    1.7991762 
   11900       18.991    899.05816  -0.19998818    934.58003    1557.2497   0.99794716        1e+09    1.8714365 
   12000       19.991    900.02751  -0.20533724    935.58767    1559.5617    1.0000455        1e+09    1.8660874 
   12100       20.991    902.94863  -0.28713817    938.62421    1564.1392    1.0026455        1e+09    1.7842865 
   12200       21.991    905.60727  -0.19955752    941.38789     1568.545     1.005136        1e+09    1.8718672 
   12300       22.991    898.43058  -0.32431627    933.92765    1556.0851    0.9973256        1e+09    1.7471084 
   12400       23.991    890.38625  -0.25644735    925.56549    1542.0368   0.98810673        1e+09    1.8149773 
   12500       24.991    899.90717  -0.29131258    935.46258    1559.3758    1.0000858        1e+09    1.7801121 
   12600       25.991    913.92774  -0.33624588    950.03711    1583.6876    1.0157586        1e+09    1.7351788 
   12700       26.991    903.69289  -0.21644656    939.39788    1565.6748    1.0037529        1e+09    1.8549781 
   12800       27.991    895.84879  -0.21949973    931.24385    1551.5883   0.99425291        1e+09     1.851925 
   12900       28.991    898.59373  -0.31897779    934.09724    1556.5463   0.99778434        1e+09    1.7524469 
   13000       29.991    903.29197  -0.28321308    938.98111    1565.2288     1.003813        1e+09    1.7882116 
   13100       30.991    903.74367  -0.17673397    939.45067    1565.9719    1.0040807        1e+09    1.8946907 
   13200       31.991    891.88684  -0.24835364    927.12536    1545.8315   0.99167439        1e+09     1.823071 
   13300       32.991    887.55052  -0.28348652    922.61772    1537.5892    0.9857471        1e+09    1.7879382 
   13400       33.991    905.81761  -0.26741094    941.60654    1568.8926    1.0054515        1e+09    1.8040137 
   13500       34.991    908.91508    -0.339442    944.82639    1574.2886    1.0090534        1e+09    1.7319827 
   13600       35.991    899.50497  -0.30124264    935.04449    1557.8825   0.99837906        1e+09     1.770182 
   13700       36.991    895.87645  -0.30378631    931.27261    1551.4842   0.99417518        1e+09    1.7676384 
   13800       37.991    899.12112  -0.15707086    934.64547    1557.7644   0.99859808        1e+09    1.9143538 
   13900       38.991    901.74273  -0.31756336    937.37066    1561.7648    1.0008984        1e+09    1.7538613 
   14000       39.991    900.88439  -0.27377421    936.47841     1560.575    1.0003515        1e+09    1.7976505 
   14100       40.991    899.60774  -0.21610681    935.15132    1558.3209   0.99877392        1e+09    1.8553179 
   14200       41.991    899.15913  -0.27345959    934.68499    1557.3019   0.99798036        1e+09    1.7979651 
   14300       42.991    901.14402  -0.28899187     936.7483    1560.8825    1.0004362        1e+09    1.7824328 
   14400       43.991    905.03287  -0.24848586     940.7908    1567.9316    1.0051883        1e+09    1.8229388 
   14500       44.991    901.14317  -0.25444167    936.74741    1560.9393    1.0004733        1e+09     1.816983 
   14600       45.991    891.49937  -0.32110571    926.72259    1544.1268   0.98970507        1e+09     1.750319 
   14700       46.991    894.39878  -0.27921912    929.73655    1549.0969   0.99277199        1e+09    1.7922056 
   14800       47.991    912.92294   -0.3291324     948.9926    1581.1046    1.0132823        1e+09    1.7422923 
   14900       48.991    908.43345   -0.2252594    944.32574    1573.9441    1.0091207        1e+09    1.8461653 
   15000       49.991    897.18855  -0.28809194    932.63655    1554.0787   0.99612159        1e+09    1.7833327 
   15100       50.991    897.38997   -0.2599354    932.84592    1554.4665   0.99636235        1e+09    1.8114893 
   15200       51.991    901.68045  -0.29367114    937.30592    1561.8391    1.0010828        1e+09    1.7777535 
   15300       52.991    904.93509  -0.23153627    940.68915    1567.5343    1.0046875        1e+09    1.8398884 
   15400       53.991    899.48172  -0.22527483    935.02032    1557.9492   0.99840291        1e+09    1.8461498 
   15500       54.991    888.96744  -0.36329648    924.09062    1540.0639   0.98747991        1e+09    1.7081282 
   15600       55.991    896.69209  -0.16505207    932.12047    1554.2506   0.99702667        1e+09    1.9063726 
   15700       56.991    910.99189  -0.26369765    946.98526    1577.7767    1.0110616        1e+09     1.807727 
   15800       57.991    904.65559  -0.25943396    940.39861     1567.061    1.0044395        1e+09    1.8119907 
   15900       58.991    895.44759  -0.22803684     930.8268    1551.3965   0.99462749        1e+09    1.8433878 
   16000       59.991    897.07926  -0.23222271    932.52294    1553.9028   0.99593229        1e+09     1.839202 
   16100       60.991    901.10602  -0.10632008     936.7088    1562.0139    1.0020195        1e+09    1.9651046 
   16200       61.991    903.17017  -0.14769329     938.8545    1565.3078    1.0039254        1e+09    1.9237314 
   16300       62.991    896.91047  -0.34554656    932.34748    1553.3575   0.99552133        1e+09    1.7258781 
   16400       63.991    886.08041 -0.092594932    921.08952    1535.9646   0.98528675        1e+09    1.9788297 
   16500       64.991    898.44323 -0.095850449    933.94079    1557.3628   0.99898571        1e+09    1.9755742 
   16600       65.991    910.11927  -0.23347138    946.07816    1576.2808    1.0100698        1e+09    1.8379533 
   16700       66.991     902.4726  -0.19904645    938.12937    1563.7864    1.0027318        1e+09    1.8723782 
   16800       67.991    894.78873  -0.22076399    930.14191    1550.3078    0.9939689        1e+09    1.8506607 
   16900       68.991     897.1228  -0.26522521     932.5682    1553.9231   0.99594512        1e+09    1.8061995 
   17000       69.991    900.26489   -0.2884569    935.83444    1559.1762   0.99916567        1e+09    1.7829678 
   17100       70.991    900.75315  -0.19540436    936.34198    1560.7287    1.0006907        1e+09    1.8760203 
   17200       71.991    899.77925   -0.2365995    935.32961    1558.5298   0.99885578        1e+09    1.8348252 
   17300       72.991    897.00449  -0.30468948    932.44521    1553.5573   0.99561934        1e+09    1.7667352 
   17400       73.991    895.15426  -0.20838325    930.52188    1551.2658   0.99487519        1e+09    1.8630414 
   17500       74.991    902.72851  -0.24111769    938.39539    1563.6956    1.0022276        1e+09     1.830307 
   17600       75.991    908.97872  -0.20271501    944.89255    1575.0807    1.0099974        1e+09    1.8687097 
   17700       76.991    897.93685  -0.26202887    933.41441    1555.4331   0.99700354        1e+09    1.8093958 
   17800       77.991    886.19453   -0.3077572    921.20815    1535.1526   0.98414046        1e+09    1.7636675 
   17900       78.991    898.77584     -0.20095    934.28655    1556.9434   0.99792819        1e+09    1.8704747 
   18000       79.991    907.28062  -0.22048665    943.12735    1571.6966    1.0074322        1e+09     1.850938 
   18100       80.991    902.01044  -0.24816656    937.64895    1562.1739    1.0009968        1e+09    1.8232581 
   18200       81.991     895.2844  -0.31314612    930.65717    1550.4061   0.99344888        1e+09    1.7582786 
   18300       82.991    896.26806  -0.28296822    931.67969    1552.1789   0.99460268        1e+09    1.7884565 
   18400       83.991    912.82403  -0.12711377    948.88979    1581.8238    1.0142757        1e+09    1.9443109 
   18500       84.991    912.88934  -0.26598672    948.95768    1581.4647     1.013814        1e+09     1.805438 
   18600       85.991    893.85668  -0.27712426    929.17303    1548.2844   0.99236969        1e+09    1.7943004 
   18700       86.991     894.9148  -0.11450513    930.27296     1551.565   0.99560294        1e+09    1.9569196 
   18800       87.991    903.33037  -0.29173433    939.02104    1564.4485    1.0025127        1e+09    1.7796903 
   18900       88.991    906.61108  -0.29072374    942.43136    1570.1757     1.006223        1e+09    1.7807009 
   19000       89.991    891.39696  -0.22898111    926.61613    1544.4136   0.99018741        1e+09    1.8424436 
   19100       90.991    883.50467  -0.15985933    918.41201    1531.2165    0.9820771        1e+09    1.9115654 
   19200       91.991    900.61905  -0.26229554    936.20259    1560.5177    1.0006833        1e+09    1.8091291 
   19300       92.991     904.6776   -0.2104802    940.42149    1567.3666     1.004814        1e+09    1.8609445 
   19400       93.991    899.75705  -0.28288838    935.30653     1558.248   0.99851539        1e+09    1.7885363 
   19500       94.991    893.45791  -0.30470333    928.75851    1547.5179   0.99185002        1e+09    1.7667213 
   19600       95.991    895.59715  -0.24898382    930.98227    1551.3948   0.99440929        1e+09    1.8224409 
   19700       96.991    911.74088  -0.23152366    947.76385    1579.0855    1.0118597        1e+09     1.839901 
   19800       97.991    908.05855  -0.27258013    943.93603    1572.8487    1.0080658        1e+09    1.7988445 
   19900       98.991    891.83585  -0.10348061    927.07236    1545.7196   0.99134789        1e+09    1.9679441 
   20000       99.991    893.86641  -0.14221868    929.18315    1549.0981     0.993441        1e+09     1.929206 
   20100      100.991    901.78955  -0.24166285    937.41933    1561.8662    1.0008613        1e+09    1.8297618 
   20200      101.991     902.8294    -0.136863    938.50026    1564.5335     1.003235        1e+09    1.9345617 
   20300      102.991    900.22547  -0.31089492    935.79345    1559.2237   0.99934333        1e+09    1.7605298 
   20400      103.991    898.95421  -0.32489824    934.47197    1557.1675   0.99818864        1e+09    1.7465264 
   20500      104.991    899.54552  -0.20788209    935.08664    1558.2957   0.99882401        1e+09    1.8635426 
   20600      105.991    900.20188  -0.16157391    935.76894    1560.0105     1.000404        1e+09    1.9098508 
   20700      106.991    900.21906  -0.20719264     935.7868    1559.5818   0.99976172        1e+09     1.864232 
   20800      107.991    899.73253 -0.0048148705    935.28104    1560.1447    1.0011496        1e+09    2.0666098 
   20900      108.991    899.91536   -0.2546053    935.47109    1558.7065   0.99894101        1e+09    1.8168194 
   21000      109.991    900.28419   -0.2742838     935.8545    1559.4436   0.99953921        1e+09    1.7971409 
   21100      110.991    901.97781  -0.29554388    937.61504    1562.1744    1.0011279        1e+09    1.7758808 
   21200      111.991    901.11238  -0.25637006    936.71541    1560.7353    1.0002008        1e+09    1.8150546 
   21300      112.991    897.60388  -0.26803496    933.06829    1554.7877   0.99653363        1e+09    1.8033897 
   21400      113.991    897.17055  -0.24446651    932.61783    1553.8499   0.99571506        1e+09    1.8269582 
   21500      114.991    903.94349  -0.26967465    939.65837    1565.6089    1.0033153        1e+09      1.80175 
   21600      115.991     909.5114  -0.24314692    945.44627    1575.3085      1.00954        1e+09    1.8282778 
   21700      116.991    896.65009  -0.24267132    932.07681    1553.0222    0.9952529        1e+09    1.8287534 
   21800      117.991    886.60544  -0.25686352     921.6353    1535.4973   0.98392675        1e+09    1.8145612 
   21900      118.991    899.78591  -0.21198371    935.33653    1558.6223   0.99895342        1e+09     1.859441 
   22000      119.991    906.60978  -0.26407757    942.43001     1570.326    1.0064232        1e+09    1.8073471 
   22100      120.991    901.75669  -0.25711216    937.38517    1562.4956    1.0019492        1e+09    1.8143125 
   22200      121.991    896.28361 -0.087012435    931.69585    1553.8309   0.99690954        1e+09    1.9844122 
   22300      122.991     897.4224  -0.25679905    932.87964    1554.1574   0.99580813        1e+09    1.8146256 
   22400      123.991    913.49649  -0.27345791    949.58881    1581.9887    1.0136543        1e+09    1.7979668 
   22500      124.991    912.86153  -0.26228415    948.92877    1581.0505    1.0131909        1e+09    1.8091405 
   22600      125.991    894.21189  -0.21872994    929.54228    1548.7016   0.99235303        1e+09    1.8526947 
   22700      126.991    894.70685   -0.2218803    930.05679      1549.59   0.99295705        1e+09    1.8495444 
   22800      127.991    903.31059  -0.15701011    939.00047    1565.4997    1.0040139        1e+09    1.9144146 
   22900      128.991       907.14  -0.17431289    942.98118    1571.9418    1.0079852        1e+09    1.8971118 
   23000      129.991    890.18389 -0.087469734    925.35513    1542.8857   0.98953313        1e+09    1.9839549 
   23100      130.991    884.23301  -0.18877569    919.16914    1532.1854   0.98246274        1e+09     1.882649 
   23200      131.991     901.4494  -0.15968451    937.06574    1562.0901    1.0016552        1e+09    1.9117402 
   23300      132.991     905.5762  -0.15587554     941.3556    1568.8388    1.0055885        1e+09    1.9155491 
   23400      133.991    899.40255  -0.28470742    934.93802     1557.951    0.9986329        1e+09    1.7867173 
   23500      134.991    891.71578  -0.28057537    926.94755    1544.3573   0.98964897        1e+09    1.7908493 
   23600      135.991    894.23529  -0.24110796     929.5666    1548.9209   0.99270126        1e+09    1.8303167 
   23700      136.991    911.56193  -0.22844935    947.57782    1579.3736    1.0126143        1e+09    1.8429753 
   23800      137.991    907.49682  -0.20851809    943.35209    1572.1396    1.0077626        1e+09    1.8629066 
   23900      138.991    892.24636  -0.27553326    927.49909    1545.3711   0.99038152        1e+09    1.7958914 
   24000      139.991    893.90321  -0.21200424     929.2214    1548.5039   0.99253955        1e+09    1.8594204 
   24100      140.991    902.88192  -0.25381432    938.55486    1563.8851    1.0022961        1e+09    1.8176104 
   24200      141.991    903.58486  -0.23295313    939.28558    1564.9929    1.0028667        1e+09    1.8384715 
   24300      142.991    900.69708  -0.32788136     936.2837    1559.8579   0.99960123        1e+09    1.7435433 
   24400      143.991    898.41591  -0.23221736     933.9124     1556.154   0.99731293        1e+09    1.8392073 
   24500      144.991    899.22662  -0.27488662    934.75514    1557.5142   0.99821028        1e+09    1.7965381 
   24600      145.991    907.25621  0.071292306    943.10198    1574.3212    1.0112104        1e+09     2.142717 
   24700      146.991    910.04349  -0.21907347    945.99938    1576.6495    1.0107637        1e+09    1.8523512 
   24800      147.991    893.75849  -0.12414228    929.07096     1548.892   0.99326162        1e+09    1.9472824 
   24900      148.991    890.39295  -0.35186678    925.57245    1542.5487   0.98906863        1e+09    1.7195579 
   25000      149.991    903.90585  -0.30633083    939.61924    1565.4975    1.0032583        1e+09    1.7650939 
   25100      150.991    908.68109  -0.21648827    944.58315    1574.1087    1.0089579        1e+09    1.8549364 
   25200      151.991    903.05215  -0.24420559    938.73182    1564.4762    1.0029442        1e+09    1.8272191 
   25300      152.991    898.73227  -0.22845879    934.24126    1557.3409   0.99868157        1e+09    1.8429659 
   25400      153.991     897.2847  -0.24102613    932.73649    1554.1642   0.99602298        1e+09    1.8303986 
   25500      154.991    902.61302  -0.15447578    938.27533    1563.9221     1.002644        1e+09    1.9169489 
   25600      155.991    913.00088  -0.28335527    949.07362    1581.4519    1.0136356        1e+09    1.7880694 
   25700      156.991    902.68599  -0.10578141    938.35119    1564.2729    1.0030065        1e+09    1.9656433 
   25800      157.991    888.81579  -0.24178375    923.93298    1539.6511   0.98687641        1e+09    1.8296409 
   25900      158.991    896.19319 -0.086666802    931.60186    1553.5459   0.99660296        1e+09    1.9847579 
   26000      159.991    905.23901  -0.18549198    941.00508    1568.6593      1.00591        1e+09    1.8859327 
   26100      160.991    903.15819  -0.20066175    938.84205    1564.9306    1.0034259        1e+09    1.8707629 
   26200      161.991    899.44687  -0.19831584     934.9841    1558.0384   0.99856077        1e+09    1.8731088 
   26300      162.991    898.71719  -0.11305397    934.22558    1557.2597   0.99839173        1e+09    1.9583707 
   26400      163.991    900.26096   -0.1719912    935.83035    1559.5089   0.99951875        1e+09    1.8994335 
   26500      164.991    904.12571  -0.26343077    939.84779    1566.0736    1.0037464        1e+09    1.8079939 
   26600      165.991    909.31274  -0.28828697    945.23976    1574.8027    1.0091329        1e+09    1.7831377 
   26700      166.991    899.09997  -0.26204616    934.62349    1557.2197   0.99792889        1e+09    1.8093785 
   26800      167.991    889.83216  -0.36377243    924.98951    1540.8166   0.98724645        1e+09    1.7076523 
   26900      168.991    899.15406 -0.078689578    934.67971     1558.744   0.99998725        1e+09    1.9927351 
   27000      169.991    912.24972  -0.12013096    948.29278    1581.0174    1.0139289        1e+09    1.9512937 
   27100      170.991    904.08811  -0.25803321    939.80871    1565.9953    1.0036748        1e+09    1.8133915 
   27200      171.991    897.18406  -0.26070958    932.63188    1554.0854   0.99609587        1e+09    1.8107151 
   27300      172.991    898.86234  -0.25033579    934.37647    1557.0289   0.99800013        1e+09    1.8210889 
   27400      173.991    902.53947  -0.20801001    938.19889    1563.7348    1.0025522        1e+09    1.8634147 
   27500      174.991    903.10297   0.11050775    938.78465    1566.5585    1.0056275        1e+09    2.1819324 
   27600      175.991    894.45367  -0.22989255    929.79361    1549.8121   0.99374739        1e+09    1.8415321 
   27700      176.991    888.27165  -0.22678651    923.36734    1539.0971   0.98687112        1e+09    1.8446382 
   27800      177.991    904.07528  -0.16867579    939.79537    1566.9828    1.0051351        1e+09    1.9027489 
   27900      178.991    911.08814  -0.20500111    947.08531    1578.8936    1.0125968        1e+09    1.8664236 
   28000      179.991    900.61993  -0.27864847     936.2035    1559.7542   0.99948479        1e+09    1.7927762 
   28100      180.991    896.11758  -0.26553305    931.52326    1552.1769   0.99482205        1e+09    1.8058916 
   28200      181.991    898.91752  -0.27353076    934.43383    1556.9778   0.99786349        1e+09    1.7978939 
   28300      182.991    901.94936   -0.1297683    937.58546    1562.9041    1.0020787        1e+09    1.9416564 
   28400      183.991    901.45629  -0.23238801     937.0729    1561.7118    1.0011541        1e+09    1.8390367 
   28500      184.991    889.43377  -0.26654532    924.57538    1540.9483   0.98796534        1e+09    1.8048794 
   28600      185.991     888.7596  -0.16523097    923.87457    1539.7571   0.98701727        1e+09    1.9061937 
   28700      186.991    906.52492  -0.33088282     942.3418    1570.2602    1.0065662        1e+09    1.7405419 
   28800      187.991    907.70194  -0.21032597    943.56532    1572.7868    1.0084608        1e+09    1.8610987 
   28900      188.991    895.64853  -0.20703735    931.03568    1551.4668    0.9943719        1e+09    1.8643873 
   29000      189.991    891.64356  -0.22445641    926.87248    1544.7068   0.99023922        1e+09    1.8469683 
   29100      190.991    913.56762  -0.23068834    949.66276    1583.0036    1.0150935        1e+09    1.8407363 
   29200      191.991    918.66251 -0.071193678    954.95894    1592.5239    1.0216057        1e+09     2.000231 
   29300      192.991    901.42384  -0.26502399    937.03918    1561.1167    1.0003069        1e+09    1.8064007 
   29400      193.991    893.18473 -0.094801292    928.47454    1548.4352   0.99343829        1e+09    1.9766234 
   29500      194.991    898.36163  -0.23648052    933.85597    1556.4202   0.99783668        1e+09    1.8349442 
   29600      195.991    911.21723  -0.21344862     947.2195    1578.4228    1.0116411        1e+09    1.8579761 
   29700      196.991    907.61086  -0.26409747    943.47064    1571.9411    1.0073438        1e+09    1.8073272 
   29800      197.991    885.97234  -0.27406647    920.97719    1534.3492   0.98316941        1e+09    1.7973582 
   29900      198.991    893.76651  -0.22007674     929.0793    1548.2812   0.99242335        1e+09    1.8513479 
   30000      199.991    905.70827  -0.26952341    941.49288    1568.8289    1.0055349        1e+09    1.8019013 
   30100      200.991    903.93725  0.074469092    939.65189    1567.5668    1.0059111        1e+09    2.1458938 
   30200      201.991    893.96456  -0.25706487    929.28518    1548.4311   0.99239294        1e+09    1.8143598 
   30300      202.991    881.16976  -0.16610756    915.98485    1526.9326   0.97911225        1e+09    1.9053171 
   30400      203.991    887.27196  -0.06707414    922.32815    1537.8048   0.98620972        1e+09    2.0043505 
   30500      204.991    907.06363  -0.21384372    942.90179    1571.1943    1.0069781        1e+09     1.857581 
   30600      205.991    905.82683  -0.25691659    941.61613    1569.1669    1.0058587        1e+09    1.8145081 
   30700      206.991    893.40418  -0.27567298    928.70265      1547.68   0.99215267        1e+09    1.7957517 
   30800      207.991    891.59146  -0.25383043    926.81831    1544.2723   0.98967689        1e+09    1.8175942 
   30900      208.991    911.91881  -0.14877179     947.9488    1580.0137    1.0129179        1e+09    1.9226529 
   31000      209.991    913.12768  -0.11041463    949.20543      1582.26    1.0144421        1e+09      1.96101 
   31100      210.991    901.81622   -0.2393815    937.44706    1561.9116     1.000886        1e+09    1.8320432 
   31200      211.991    896.52082  -0.26704153    931.94243    1552.6302   0.99487913        1e+09    1.8043831 
   31300      212.991    898.40833  -0.26650607    933.90452    1556.7575   0.99834741        1e+09    1.8049186 
   31400      213.991    909.88325  -0.24195756    945.83282    1576.5632    1.0109291        1e+09    1.8294671 
   31500      214.991    916.39421  -0.28091246    952.60102     1587.119    1.0170599        1e+09    1.7905122 
   31600      215.991    894.38281  -0.19131054    929.71996    1549.2647   0.99292658        1e+09    1.8801141 
   31700      216.991    891.94202  -0.23302939    927.18272    1545.0124   0.99024554        1e+09    1.8383953 
   31800      217.991    902.84548  -0.23579552    938.51699    1563.7437    1.0021014        1e+09    1.8356292 
   31900      218.991    907.90235  -0.22180097    943.77365    1572.8162    1.0081925        1e+09    1.8496237 
   32000      219.991    893.15206  -0.27003522    928.44057    1547.1858   0.99177177        1e+09    1.8013895 
   32100      220.991    880.45435  -0.25476197    915.24118    1524.9333   0.97724252        1e+09    1.8166627 
   32200      221.991    894.11855  -0.28441241    929.44525    1548.6753   0.99257153        1e+09    1.7870123 
   32300      222.991    902.64312  -0.18477319    938.30663    1563.9458    1.0026805        1e+09    1.8866515 
   32400      223.991    903.84124 -0.076255136    939.55208    1566.9666    1.0053509        1e+09    1.9951695 
   32500      224.991    895.48684  -0.22835957     930.8676    1551.2661    0.9943538        1e+09    1.8430651 
   32600      225.991    884.71581  -0.26739983    919.67101    1532.7859   0.98274676        1e+09    1.8040248 
   32700      226.991     899.6645 -0.056634605    935.21032    1559.3097    1.0000082        1e+09    2.0147901 
   32800      227.991    911.17793  -0.20928431    947.17865    1578.2594    1.0114381        1e+09    1.8621404 
   32900      228.991    901.07718  -0.18966029    936.67882    1561.5404    1.0014424        1e+09    1.8817644 
   33000      229.991    892.76152  -0.14311186    928.03461    1546.9421   0.99182826        1e+09    1.9283128 
   33100      230.991    898.37352  -0.22329609    933.86833    1556.0748   0.99724228        1e+09    1.8481286 
   33200      231.991     918.0844  -0.23385447      954.358    1590.3128    1.0192865        1e+09    1.8375702 
   33300      232.991    920.55713  -0.22528994    956.92842    1594.5643    1.0219662        1e+09    1.8461347 
   33400      233.991     894.6597  -0.23102994    930.00778    1549.7719    0.9933417        1e+09    1.8403947 
   33500      234.991    895.67866  -0.28656853      931.067     1551.411   0.99435965        1e+09    1.7848561 
   33600      235.991    905.17254  -0.23000429    940.93599     1567.967    1.0049829        1e+09    1.8414204 
   33700      236.991     907.3663  -0.29553292    943.21642    1571.8779    1.0077001        1e+09    1.7758918 
   33800      237.991    893.66077  -0.24985241    928.96938    1548.1128   0.99237742        1e+09    1.8215723 
   33900      238.991    887.86804  -0.30294598    922.94778    1537.6484    0.9853443        1e+09    1.7684787 
   34000      239.991    907.77092  -0.21660351    943.63702    1572.8006    1.0083781        1e+09    1.8548212 
   34100      240.991      911.383  -0.21651833    947.39182    1578.7929    1.0119629        1e+09    1.8549064 
   34200      241.991     900.5752  -0.22511359      936.157     1559.812   0.99956604        1e+09    1.8463111 
   34300      242.991    893.94298  -0.26286223    929.26274    1548.3515   0.99231065        1e+09    1.8085624 
   34400      243.991    899.32802  -0.27692993    934.86055    1557.6902   0.99832674        1e+09    1.7944948 
   34500      244.991    916.91491  -0.18312067    953.14229     1588.608    1.0184216        1e+09     1.888304 
   34600      245.991    909.72032   -0.1765355    945.66344    1576.3098    1.0106896        1e+09    1.8948892 
   34700      246.991    891.39072  -0.26641186    926.60965    1544.0876   0.98973552        1e+09    1.8050128 
   34800      247.991    897.32411  -0.26952748    932.77746    1554.2304   0.99610918        1e+09    1.8018972 
   34900      248.991    907.41958   -0.3448924    943.27181    1571.6039    1.0072514        1e+09    1.7265323 
   35000      249.991     904.6529  -0.28833636    940.39582    1566.7738    1.0040301        1e+09    1.7830883 
   35100      250.991     886.2426   -0.1027377    921.25813    1536.3941   0.98572107        1e+09     1.968687 
   35200      251.991    889.17413 -0.027097404    924.30547    1541.5993   0.98905705        1e+09    2.0443273 
   35300      252.991    903.83757  -0.19527335    939.54827    1566.1227    1.0041957        1e+09    1.8761513 
   35400      253.991    902.80423  -0.28687286    938.47411    1563.4942    1.0018521        1e+09    1.7845518 
   35500      254.991    897.06188  -0.28505974    932.50487    1554.0028   0.99620615        1e+09    1.7863649 
   35600      255.991    894.49995  -0.20492196    929.84172     1549.259   0.99274415        1e+09    1.8665027 
   35700      256.991    905.51483  -0.23661066     941.2918    1568.3551    1.0050451        1e+09     1.834814 
   35800      257.991    914.82637  -0.17898093    950.97124    1585.2721    1.0165487        1e+09    1.8924437 
   35900      258.991    896.92574  -0.25748628    932.36335    1553.3829   0.99539547        1e+09    1.8139384 
   36000      259.991    890.80927  -0.17960638    926.00522    1543.1563   0.98907271        1e+09    1.8918183 
   36100      260.991    899.32561  -0.14037247    934.85804    1558.8208   0.99992337        1e+09    1.9310522 
   36200      261.991    905.51024  -0.21974319    941.28703    1568.4274    1.0051417        1e+09    1.8516815 
   36300      262.991    900.50947  -0.30323818    936.08868    1559.7027    0.9996256        1e+09    1.7681865 
   36400      263.991     879.3349  -0.29845798     914.0775    1522.9089   0.97593355        1e+09    1.7729667 
   36500      264.991    887.95622  -0.24753216    923.03945    1538.7991   0.98695219        1e+09    1.8238925 
   36600      265.991    900.72256  -0.13178581    936.31019    1560.9105     1.000931        1e+09    1.9396389 
   36700      266.991    903.02174 -0.068098787    938.70021    1565.0572    1.0036436        1e+09    2.0033259 
   36800      267.991    899.34933  -0.29777238     934.8827      1558.22   0.99917339        1e+09    1.7736523 
   36900      268.991    891.89211  -0.24711614    927.13085     1545.011   0.99034904        1e+09    1.8243085 
   37000      269.991    894.56991  -0.13881567    929.91444    1549.8288   0.99343463        1e+09     1.932609 
   37100      270.991    911.80709  -0.20633896    947.83267    1579.3011    1.0120545        1e+09    1.8650857 
   37200      271.991    907.78094  -0.22037292    943.64745     1572.283    1.0075382        1e+09    1.8510518 
   37300      272.991    893.00307  -0.27516217     928.2857    1546.7499   0.99132967        1e+09    1.7962625 
   37400      273.991    894.66867  -0.22894958    930.01711    1549.6903   0.99319259        1e+09    1.8424751 
   37500      274.991    900.95941  -0.22842462    936.55639     1560.572    1.0001491        1e+09    1.8430001 
   37600      275.991    903.44782  -0.25380135    939.14312    1564.6906     1.002644        1e+09    1.8176233 
   37700      276.991    897.20475  -0.26790316    932.65339    1554.2214   0.99629082        1e+09    1.8035215 
   37800      277.991    880.34817  -0.16088255     915.1308    1524.8795   0.97718285        1e+09    1.9105421 
   37900      278.991    893.69384   -0.2069452    929.00376    1548.0145   0.99209599        1e+09    1.8644795 
   38000      279.991    905.87938  -0.20457228    941.67075    1569.3845    1.0060359        1e+09    1.8668524 
   38100      280.991    902.24122  -0.12480578    937.88885    1563.4081    1.0023923        1e+09    1.9466189 
   38200      281.991    893.53949   -0.2066951    928.84331    1547.7777   0.99197325        1e+09    1.8647296 
   38300      282.991    892.51208  -0.15838706    927.77531    1546.6768   0.99184315        1e+09    1.9130376 
   38400      283.991    912.03641  -0.21499669    948.07105    1579.6257    1.0122064        1e+09     1.856428 
   38500      284.991    911.07578  -0.28076764    947.07246    1577.8665    1.0110933        1e+09     1.790657 
   38600      285.991      895.243  -0.18931573    930.61413     1551.173   0.99454822        1e+09    1.8821089 
   38700      286.991    894.83517  -0.24968409    930.19018    1549.8064   0.99313457        1e+09    1.8217406 
   38800      287.991    901.55209  -0.24082583    937.17249    1561.4776    1.0006328        1e+09    1.8305988 
   38900      288.991    904.57799 -0.085667102    940.31795    1567.4319    1.0048844        1e+09    1.9857576 
   39000      289.991    892.63893  -0.13497182    927.90717    1546.5834    0.9914447        1e+09    1.9364529 
   39100      290.991    880.86937  -0.17644904    915.67259     1526.006   0.97814447        1e+09    1.8949756 
   39200      291.991    899.12923  -0.15290281     934.6539    1557.5224   0.99819018        1e+09    1.9185219 
   39300      292.991    906.21679   -0.1551943    942.02149    1569.9326     1.006273        1e+09    1.9162304 
   39400      293.991    900.52814  -0.27927694    936.10808    1559.5154   0.99925608        1e+09    1.7921477 
   39500      294.991    890.61301  -0.17342631    925.80121    1542.6017   0.98850115        1e+09    1.8979984 
   39600      295.991    893.27305 -0.068829621    928.56634    1547.9604    0.9924889        1e+09    2.0025951 
   39700      296.991    913.59483   -0.2279176    949.69104    1582.3394    1.0139796        1e+09    1.8435071 
   39800      297.991    906.98152  -0.20197499    942.81643    1570.9401    1.0066886        1e+09    1.8694497 
   39900      298.991    893.39263  -0.12874444    928.69065    1548.4459   0.99316361        1e+09    1.9426802 
   40000      299.991    895.44904  -0.20191637    930.82831     1551.666   0.99501505        1e+09    1.8695083 
   40100      300.991    903.02578  -0.11971774     938.7044    1564.4543    1.0027536        1e+09    1.9517069 
   40200      301.991    903.97028 -0.041801621    939.68622    1566.9232    1.0050114        1e+09    2.0296231 
   40300      302.991    888.50592  -0.11254324    923.61086    1539.5109   0.98696082        1e+09    1.9588814 
   40400      303.991    875.85801  -0.18475849    910.46324     1517.233    0.9724483        1e+09    1.8866662 
   40500      304.991    895.79251  0.022688547    931.18535    1553.0831   0.99635365        1e+09    2.0941132 
   40600      305.991     905.6299  -0.18540235    941.41142     1568.609    1.0051783        1e+09    1.8860223 
   40700      306.991    903.31159 -0.079301714    939.00151    1565.8116    1.0043874        1e+09     1.992123 
   40800      307.991    891.93616  -0.24126129    927.17663    1544.9583   0.99018184        1e+09    1.8301634 
   40900      308.991    890.12384  -0.18515115    925.29271    1541.7096   0.98790527        1e+09    1.8862735 
   41000      309.991    912.29021  -0.23527555    948.33488    1580.3893    1.0130397        1e+09    1.8361491 
   41100      310.991    910.16087  -0.24467991    946.12141    1576.6676    1.0106383        1e+09    1.8267448 
   41200      311.991    897.31147  -0.21330004    932.76432     1554.347   0.99622684        1e+09    1.8581246 
   41300      312.991    895.55707  -0.26139029    930.94061    1551.3708    0.9944574        1e+09    1.8100344 
   41400      313.991    901.43449  -0.27259979    937.05025    1561.5738    1.0010337        1e+09    1.7988249 
   41500      314.991     909.5342  -0.25172021    945.46998     1575.289    1.0094846        1e+09    1.8197045 
   41600      315.991    915.38246  -0.23683041     951.5493      1585.63    1.0162887        1e+09    1.8345943 
   41700      316.991    896.98661  -0.14210239    932.42663    1554.1381   0.99631914        1e+09    1.9293223 
   41800      317.991      890.234  -0.18314756    925.40722    1542.4318   0.98887564        1e+09    1.8882771 
   41900      318.991    901.63613  -0.12321631    937.25985    1562.7047    1.0022704        1e+09    1.9482084 
   42000      319.991    910.11004  -0.22301947    946.06856    1576.3838    1.0102335        1e+09    1.8484052 
   42100      320.991     898.3585   -0.2055483    933.85272    1556.0613   0.99721736        1e+09    1.8658764 
   42200      321.991    881.82775  -0.18754268    916.66884    1527.3582   0.97873259        1e+09     1.883882 
   42300      322.991     890.0466  -0.19761582    925.21242    1542.0248   0.98855898        1e+09    1.8738089 
   42400      323.991    900.42637 -0.077065361    936.00229    1560.5785    1.0008047        1e+09    1.9943593 
   42500      324.991    907.34997  -0.17186358    943.19945    1572.2725    1.0081615        1e+09    1.8995611 
   42600      325.991    900.52781  -0.21169756    936.10774    1559.8917    0.9997512        1e+09    1.8597271 
   42700      326.991    887.63261  -0.18021261    922.70305    1538.0257   0.98614419        1e+09    1.8912121 
   42800      327.991    896.16762  0.073412839    931.57528    1554.0738    0.9972349        1e+09    2.1448375 
   42900      328.991    914.30074  -0.21563321    950.42484    1583.9997    1.0154442        1e+09    1.8557915 
   43000      329.991    904.80872  -0.23294053    940.55779    1567.2539     1.004451        1e+09    1.8384841 
   43100      330.991    894.76478  -0.10910705    930.11701    1550.7896    0.9946019        1e+09    1.9623176 
   43200      331.991    896.22533  -0.18281498    931.63527    1552.8435   0.99557813        1e+09    1.8886097 
   43300      332.991    909.86887  -0.16578285    945.81787    1576.8398    1.0112742        1e+09    1.9056418 
   43400      333.991    921.45042  -0.20841405    957.85701    1596.2943    1.0232231        1e+09    1.8630106 
   43500      334.991    896.01571  -0.19289332    931.41737     1552.026   0.99463362        1e+09    1.8785314 
   43600      335.991    892.34948  -0.21660967    927.60628    1545.8055   0.99081125        1e+09     1.854815 
   43700      336.991     903.0038  -0.12184163    938.68156    1564.8943    1.0034986        1e+09    1.9495831 
   43800      337.991    909.21671  -0.21885153    945.13994     1574.811    1.0091949        1e+09    1.8525732 
   43900      338.991    896.07244  -0.14578353    931.47634    1552.9164    0.9958903        1e+09    1.9256411 
   44000      339.991    884.83632   -0.1820519    919.79628    1533.1993   0.98307162        1e+09    1.8893728 
   44100      340.991    896.58912 -0.0069773794    932.01343    1554.3036   0.99702993        1e+09    2.0644473 
   44200      341.991    901.55923 0.0038253143    937.17992    1563.1203    1.0028608        1e+09      2.07525 
   44300      342.991     900.9666  -0.15556051    936.56387    1561.2896    1.0011701        1e+09    1.9158642 
   44400      343.991    897.46164  -0.10321288    932.92042    1555.0215   0.99688114        1e+09    1.9682118 
   44500      344.991    894.99037  -0.16301265    930.35152    1550.7225   0.99420499        1e+09     1.908412 
   44600      345.991    902.10301  -0.15398578    937.74517    1562.8019     1.001698        1e+09    1.9174389 
   44700      346.991    911.13699  -0.21514514    947.13609    1578.0943    1.0112511        1e+09    1.8562795 
   44800      347.991     900.0646  -0.10750222    935.62623    1559.5188   0.99975833        1e+09    1.9639225 
   44900      348.991    887.57609  -0.24320222     922.6443    1537.2403   0.98508099        1e+09    1.8282225 
   45000      349.991    896.19268 -0.051632836    931.60133     1553.741   0.99686033        1e+09    2.0197918 
   45100      350.991    902.97466  -0.17424076    938.65127    1563.9658    1.0021434        1e+09    1.8971839 
   45200      351.991    901.44415   -0.1177124    937.06028    1562.1573    1.0017043        1e+09    1.9537123 
   45300      352.991    897.83352 -0.099242389      933.307    1555.7411   0.99740827        1e+09    1.9721823 
   45400      353.991     895.9422  -0.17515915    931.34095    1552.1739   0.99496457        1e+09    1.8962655 
   45500      354.991    902.28893  -0.20878706    937.93844    1563.0111    1.0018112        1e+09    1.8626376 
   45600      355.991    909.50989  -0.20441172    945.44471    1575.9824    1.0105601        1e+09     1.867013 
   45700      356.991     899.8687   -0.2480663    935.42259    1558.6402   0.99890204        1e+09    1.8233584 
   45800      357.991    888.25728  -0.18233843     923.3524    1538.4989   0.98586539        1e+09    1.8890862 
   45900      358.991    898.50777  -0.21859965    934.00788    1556.2583   0.99730527        1e+09     1.852825 
   46000      359.991    912.30705  -0.22738097    948.35238    1580.0776    1.0124996        1e+09    1.8440437 
   46100      360.991    906.11687  -0.13764873    941.91763    1570.0157    1.0065445        1e+09    1.9337759 
   46200      361.991    897.76911  -0.19870993    933.24005    1555.0989   0.99664598        1e+09    1.8727148 
   46300      362.991    894.75489   -0.2200251    930.10673    1549.7651   0.99315452        1e+09    1.8513996 
   46400      363.991    904.16813  -0.10928653    939.89189    1566.3645    1.0038948        1e+09    1.9621382 
   46500      364.991    917.64081  -0.12994975    953.89688    1589.9486    1.0192754        1e+09    1.9414749 
   46600      365.991    899.76524  -0.14005362    935.31504    1558.9675   0.99942572        1e+09    1.9313711 
   46700      366.991    891.49897  -0.23318026    926.72217    1544.4606   0.99009956        1e+09    1.8382444 
   46800      367.991    899.90925  -0.22677151    935.46474    1559.2015   0.99969978        1e+09    1.8446532 
   46900      368.991    907.49924  -0.13447058    943.35461    1572.1645    1.0076798        1e+09    1.9369541 
   47000      369.991    900.46111  -0.24408748    936.03841    1559.5243   0.99932559        1e+09    1.8273372 
   47100      370.991    881.85719  -0.22780328    916.69945     1527.621   0.97916916        1e+09    1.8436214 
   47200      371.991    892.36454  -0.21256248    927.62194    1545.5965   0.99044485        1e+09    1.8588622 
   47300      372.991    901.56635 -0.088120807    937.18732     1562.429    1.0018887        1e+09    1.9833039 
   47400      373.991    902.17975  -0.17591823    937.82495    1563.1522    1.0021665        1e+09    1.8955064 
   47500      374.991    897.96427  -0.25049683    933.44291    1555.9927   0.99783592        1e+09    1.8209279 
   47600      375.991    891.74099 -0.080478074    926.97375    1545.3596    0.9908923        1e+09    1.9909466 
   47700      376.991    897.01513  -0.18507963    932.45627    1554.0171    0.9961467        1e+09     1.886345 
   47800      377.991    911.78369   -0.2109229    947.80834    1579.1618    1.0118776        1e+09    1.8605018 
   47900      378.991    905.60575   -0.2609357    941.38631    1568.7133    1.0055067        1e+09     1.810489 
   48000      379.991    890.42601  -0.26260914    925.60681    1542.3355   0.98852897        1e+09    1.8088155 
   48100      380.991    894.07602  -0.21245638    929.40104    1548.6624   0.99250636        1e+09    1.8589683 
   48200      381.991    900.55323  0.092379551    936.13417    1561.9859    1.0025769        1e+09    2.1638042 
   48300      382.991     902.8557   -0.2111588    938.52761    1563.6847    1.0019502        1e+09    1.8602659 
   48400      383.991    898.73181  -0.23046639    934.24079    1556.7425   0.99772689        1e+09    1.8409583 
   48500      384.991    883.56055  -0.22882223    918.47011    1530.2746   0.98058532        1e+09    1.8426024 
   48600      385.991    887.47864  -0.32505243      922.543    1536.9389   0.98489146        1e+09    1.7463723 
   48700      386.991    906.00135  -0.16106956    941.79754    1569.5167     1.005975        1e+09    1.9103551 
   48800      387.991    904.71731  -0.18499837    940.46277    1567.1427    1.0043482        1e+09    1.8864263 
   48900      388.991    894.88543  -0.21062768    930.24243    1550.0495   0.99337779        1e+09     1.860797 
   49000      389.991    891.50874  -0.22193348    926.73232    1544.2813   0.98977801        1e+09    1.8494912 
   49100      390.991    911.44789  -0.20534941    947.45928    1578.8497    1.0119279        1e+09    1.8660753 
   49200      391.991    913.62146  -0.26549585    949.71873    1582.4945    1.0142438        1e+09    1.8059288 
   49300      392.991     897.6654 0.0059907727    933.13224     1556.988   0.99951744        1e+09    2.0774155 
   49400      393.991    895.15176  -0.17261968    930.51928    1550.8471   0.99415121        1e+09     1.898805 
   49500      394.991    901.03079  -0.20358063     936.6306    1560.5459   0.99994866        1e+09    1.8678441 
   49600      395.991    907.97437  -0.20249636    943.84852    1573.2562    1.0087466        1e+09    1.8689283 
   49700      396.991     907.1241  -0.25632819    942.96465    1571.0659    1.0067398        1e+09    1.8150965 
   49800      397.991    891.06701   -0.2425891    926.27315    1543.6039   0.98946149        1e+09    1.8288356 
   49900      398.991    891.13159  -0.15630322    926.34027    1543.5253    0.9890898        1e+09    1.9151215 
   50000      399.991    906.98564  -0.07513335    942.82072    1571.7415    1.0077624        1e+09    1.9962913 
   50100      400.991    908.04135   -0.2072121    943.91814    1573.2219    1.0085878        1e+09    1.8642126 
   50200      401.991    897.94897  -0.27008926    933.42701    1555.2085   0.99663647        1e+09    1.8013354 
   50300      402.991    896.48486  -0.33675859    931.90506    1552.4339   0.99473632        1e+09    1.7346661 
   50400      403.991     899.6022  -0.20996107    935.14556    1558.3303   0.99878828        1e+09    1.8614636 
   50500      404.991    902.59395  -0.20168183    938.25551    1563.5694    1.0021864        1e+09    1.8697428 
   50600      405.991    901.02182 -0.086204706    936.62127    1562.0293    1.0021521        1e+09      1.98522 
   50700      406.991    890.37417  -0.22618095    925.55293    1542.8426   0.98936939        1e+09    1.8452437 
   50800      407.991    890.81376 -0.067220802    926.00989    1543.9756   0.99019784        1e+09    2.0042039 
   50900      408.991    908.52425  -0.26479489    944.42012    1573.5625    1.0084214        1e+09    1.8066298 
   51000      409.991    908.08498  -0.25854999    943.96349    1573.4115     1.008901        1e+09    1.8128747 
   51100      410.991    896.45353  -0.25079448    931.87248    1553.1566   0.99580862        1e+09    1.8206302 
   51200      411.991    895.24083  -0.29220351    930.61187    1550.5029   0.99364298        1e+09    1.7792212 
   51300      412.991    899.22146  -0.27682643    934.74978    1557.3039   0.99788504        1e+09    1.7945983 
   51400      413.991    901.82988  -0.11123663    937.46126    1562.3809    1.0014098        1e+09    1.9601881 
   51500      414.991    901.04297  -0.15571668    936.64326     1561.222    1.0009349        1e+09     1.915708 
   51600      415.991    891.06811  -0.21647454    926.27429    1543.6726   0.98952785        1e+09    1.8549501 
   51700      416.991    887.65653  -0.23972238    922.72791    1537.5711    0.9854713        1e+09    1.8317023 
   51800      417.991    905.63133  -0.21592592     941.4129    1569.0086     1.005865        1e+09    1.8554988 
   51900      418.991    908.72137  -0.20224835    944.62503    1574.7747     1.009935        1e+09    1.8691763 
   52000      419.991    897.56265  -0.18907557    933.02542       1555.3   0.99729664        1e+09    1.8823491 
   52100      420.991    893.16695  -0.23558563    928.45606    1547.0866   0.99153273        1e+09    1.8358391 
   52200      421.991    899.12277  -0.19848737    934.64719    1557.9907   0.99902433        1e+09    1.8729373 
   52300      422.991    901.27645  -0.24077759    936.88596    1561.4272     1.001011        1e+09    1.8306471 
   52400      423.991    900.17531  -0.26089742    935.74131    1559.0604   0.99908521        1e+09    1.8105273 
   52500      424.991     898.5212  -0.37540711    934.02185    1555.8834   0.99693336        1e+09    1.6960176 
   52600      425.991    898.64427 -0.080787388    934.14978    1557.6325   0.99905874        1e+09    1.9906373 
   52700      426.991    904.32501 -0.076306989    940.05497    1567.0622    1.0046985        1e+09    1.9951177 
   52800      427.991     907.0004  -0.16328695    942.83606    1571.4103    1.0073485        1e+09    1.9081377 
   52900      428.991    894.87034  -0.22034106    930.22675    1549.9312   0.99322897        1e+09    1.8510836 
   53000      429.991    887.80902   -0.1564781    922.88643    1538.2824   0.98622374        1e+09    1.9149466 
   53100      430.991    905.16656  -0.22228465    940.92977    1567.7762    1.0046748        1e+09      1.84914 
   53200      431.991    911.49571    -0.202947    947.50898    1579.0559    1.0121749        1e+09    1.8684777 
   53300      432.991    902.25872  -0.28834704    937.90704    1562.9527    1.0018954        1e+09    1.7830776 
   53400      433.991    895.82216 -0.082940708    931.21617     1552.821   0.99605358        1e+09     1.988484 
   53500      434.991    898.07396    -0.239959    933.55693    1555.4711   0.99680077        1e+09    1.8314657 
   53600      435.991    913.19951  -0.22041819     949.2801    1581.9201     1.013954        1e+09    1.8510065 
   53700      436.991    918.82124  -0.20200391    955.12395     1591.917    1.0205785        1e+09    1.8694208 
   53800      437.991    896.00463 -0.039711578    931.40585    1553.3588   0.99654204        1e+09    2.0317131 
   53900      438.991    894.96162  -0.18996383    930.32163    1550.6285   0.99414543        1e+09    1.8814608 
   54000      439.991    903.31125  -0.31082886    939.00115    1564.6458    1.0028911        1e+09    1.7605958 
   54100      440.991    908.39969  -0.32142544    944.29064    1573.0645    1.0079217        1e+09    1.7499992 
   54200      441.991     894.5742  -0.21482934    929.91891    1550.3127   0.99432462        1e+09    1.8565953 
   54300      442.991    884.36276  -0.16813747    919.30401    1531.8545   0.98168338        1e+09    1.9032872 
   54400      443.991    899.12754  -0.21674882    934.65215    1557.6619    0.9985189        1e+09    1.8546759 
   54500      444.991    904.31761  -0.18559928    940.04728     1566.991    1.0047718        1e+09    1.8858254 
   54600      445.991    900.49483  -0.23252911    936.07346    1559.8349   0.99974852        1e+09    1.8388956 
   54700      446.991    895.14954  -0.23968464    930.51698      1550.51   0.99372232        1e+09      1.83174 
   54800      447.991    895.81592  -0.18318335    931.20968    1551.9671   0.99485651        1e+09    1.8882413 
   54900      448.991    910.14781  -0.22534945    946.10783    1577.0114    1.0111799        1e+09    1.8460752 
   55000      449.991    909.68598  -0.28180546    945.62775    1575.9038     1.010265        1e+09    1.7896192 
   55100      450.991    892.21889  -0.19874675    927.47053    1545.8627   0.99109185        1e+09    1.8726779 
   55200      451.991    892.50933  -0.11363731    927.77245     1547.171    0.9925678        1e+09    1.9577874 
   55300      452.991    901.54913  -0.27979572    937.16941    1561.5114    1.0007543        1e+09     1.791629 
   55400      453.991    903.22432  -0.19035197    938.91079    1564.4622    1.0025487        1e+09    1.8810727 
   55500      454.991    900.28677 -0.043434576    935.85718    1561.0113    1.0016768        1e+09    2.0279901 
   55600      455.991    898.73383  -0.23255452    934.24288    1556.5264   0.99738065        1e+09    1.8388702 
   55700      456.991    899.53136  -0.27273934    935.07192    1558.2262   0.99884007        1e+09    1.7986853 
   55800      457.991    903.43007   -0.1871925    939.12467    1564.8751    1.0028625        1e+09    1.8842322 
   55900      458.991    914.09171   -0.1789555    950.20756    1583.5358    1.0149904        1e+09    1.8924692 
   56000      459.991    903.06739  -0.19208531    938.74766    1564.3532    1.0026382        1e+09    1.8793394 
   56100      460.991    890.24604  -0.17150293    925.41974    1542.3802   0.98875439        1e+09    1.8999217 
   56200      461.991    896.67911  -0.23767701    932.10698    1552.9878   0.99514139        1e+09    1.8337477 
   56300      462.991    910.01071  -0.20506921    945.96531    1576.2599    1.0101717        1e+09    1.8663555 
   56400      463.991    905.12991  -0.23769136    940.89167    1567.7124    1.0046583        1e+09    1.8337333 
   56500      464.991    885.00012  -0.21231109    919.96655     1533.239   0.98291084        1e+09    1.8591136 
   56600      465.991    887.48779   -0.1681165    922.55251    1537.3722   0.98531905        1e+09    1.9033082 
   56700      466.991    898.37099  -0.25721692     933.8657    1556.5526   0.99806644        1e+09    1.8142078 
   56800      467.991    907.51205  -0.18142883    943.36793    1572.3066    1.0079614        1e+09    1.8899958 
   56900      468.991    903.18803  -0.27803942    938.87306    1564.2804    1.0024583        1e+09    1.7933853 
   57000      469.991    889.10318 -0.024853823    924.23172    1541.5391    0.9890752        1e+09    2.0465709 
   57100      470.991    892.85576  -0.22444731    928.13257    1546.7228   0.99145034        1e+09    1.8469774 
   57200      471.991     914.5939  -0.26160169    950.72958    1584.0249    1.0150701        1e+09     1.809823 
   57300      472.991    907.77679  -0.22662049    943.64313    1572.2867     1.007561        1e+09    1.8448042 
   57400      473.991    896.53332  -0.29923747    931.95543    1552.6418   0.99492857        1e+09    1.7721872 
   57500      474.991    894.90763  -0.24749171    930.26551     1550.139   0.99354332        1e+09     1.823933 
   57600      475.991    905.50247  -0.11886596    941.27895    1569.6521    1.0069551        1e+09    1.9525587 
   57700      476.991    920.51652  -0.22196152    956.88621    1595.0047    1.0227341        1e+09    1.8494632 
   57800      477.991    900.06082  -0.13020012     935.6223    1559.8825    1.0003836        1e+09    1.9412246 
   57900      478.991    891.46485  -0.35362483     926.6867    1544.1431   0.98984075        1e+09    1.7177998 
   58000      479.991    900.69708  -0.18775245     936.2837    1560.2439   0.99999513        1e+09    1.8836722 
   58100      480.991    908.98642  -0.14872417    944.90055    1575.3612    1.0103475        1e+09    1.9227005 
   58200      481.991    899.79107  -0.21985952    935.34189    1558.5451   0.99883379        1e+09    1.8515652 
   58300      482.991    884.12293  -0.17420015     919.0547    1532.1873    0.9826257        1e+09    1.8972245 
   58400      483.991    894.18168  -0.20841939    929.51088    1548.8577   0.99263692        1e+09    1.8630053 
   58500      484.991    901.41726  -0.24905287    937.03234    1561.3376    1.0006462        1e+09    1.8223718 
   58600      485.991      901.339  -0.13213705    936.95098    1561.5907    1.0009948        1e+09    1.9392876 
   58700      486.991    898.42558  -0.25227096    933.92246    1556.3967    0.9977178        1e+09    1.8191537 
   58800      487.991    895.14082  -0.28735113    930.50791    1550.1501   0.99323661        1e+09    1.7840735 
   58900      488.991    899.65201  -0.18735409    935.19734    1558.6785   0.99922699        1e+09    1.8840706 
   59000      489.991    910.41555  -0.19828454    946.38615    1577.3342    1.0112078        1e+09    1.8731401 
   59100      490.991    904.37358  -0.16968338    940.10546    1566.4096    1.0037217        1e+09    1.9017413 
   59200      491.991    887.95014  -0.16824565    923.03313    1538.1186   0.98574499        1e+09     1.903179 
   59300      492.991    893.69448  -0.19979407    929.00443    1548.2082   0.99239376        1e+09    1.8716306 
   59400      493.991    902.39609 -0.093868989    938.04983    1563.7763    1.0026746        1e+09    1.9775557 
   59500      494.991    902.21687  -0.30651217    937.86353    1562.5685    1.0013787        1e+09    1.7649125 
   59600      495.991     898.5869  -0.21865272    934.09014    1556.8628   0.99814197        1e+09     1.852772 
   59700      496.991    895.84612  -0.22098051    931.24107    1551.8779   0.99472383        1e+09    1.8504442 
   59800      497.991      899.928  -0.16723649    935.48424    1559.3176   0.99975912        1e+09    1.9041882 
   59900      498.991    909.04808  -0.20746285    944.96465    1575.1913    1.0100667        1e+09    1.8639618 
   60000      499.991    903.39662  -0.19685574     939.0899    1565.3292    1.0036612        1e+09    1.8745689 
   60100      500.991    889.13819  -0.18833317    924.26811    1540.4157   0.98747896        1e+09    1.8830915 
   60200      501.991    894.09142  0.024069853    929.41705    1550.1387   0.99446706        1e+09    2.0954945 
   60300      502.991     911.6616  -0.19127228    947.68143    1579.0979    1.0119471        1e+09    1.8801524 
   60400      503.991     908.0142  -0.18864781    943.88992     1573.076    1.0083694        1e+09    1.8827769 
   60500      504.991      899.317  -0.14801898    934.84909    1558.3815   0.99924614        1e+09    1.9234057 
   60600      505.991    894.57818  -0.30119943    929.92304    1549.8789   0.99376134        1e+09    1.7702252 
   60700      506.991    900.52484  -0.11688531    936.10466    1560.4131    1.0004396        1e+09    1.9545394 
   60800      507.991    916.70384  -0.22890547    952.92289    1587.9362    1.0177701        1e+09    1.8425192 
   60900      508.991    906.07478  -0.22478132    941.87388    1569.4948    1.0059196        1e+09    1.8466434 
   61000      509.991    891.08917  -0.19276859    926.29618    1543.6418   0.98940543        1e+09    1.8786561 
   61100      510.991    897.48295  -0.15226758    932.94258    1554.7026   0.99641323        1e+09    1.9191571 
   61200      511.991    906.67276  -0.09048367    942.49548    1571.3445     1.007672        1e+09     1.980941 
   61300      512.991     903.9718  -0.24899006    939.68781    1566.1523    1.0041057        1e+09    1.8224346 
   61400      513.991    883.72834   -0.2742511    918.64453    1530.5272   0.98078348        1e+09    1.7971736 
   61500      514.991    888.65615  -0.26705067    923.76703    1539.2203   0.98649256        1e+09     1.804374 
   61600      515.991    900.84816  -0.28458535    936.44075     1560.275   0.99994854        1e+09    1.7868393 
   61700      516.991    902.30628 -0.063902445    937.95648    1564.0465    1.0032091        1e+09    2.0075222 
   61800      517.991    899.13455  -0.10931402    934.65943    1558.0412   0.99894282        1e+09    1.9621107 
   61900      518.991    893.44572  -0.24559905    928.74584    1547.3819   0.99155759        1e+09    1.8258256 
   62000      519.991    894.47253  -0.17951603    929.81322    1550.2654   0.99436145        1e+09    1.8919086 
   62100      520.991    909.52875  -0.27419674    945.46431    1575.2621    1.0094866        1e+09    1.7972279 
   62200      521.991    909.11513 -0.068880326    945.03434     1575.611    1.0104054        1e+09    2.0025444 
   62300      522.991    891.57223  -0.20040164    926.79833    1544.2277   0.98955186        1e+09     1.871023 
   62400      523.991     891.9322   -0.2692333    927.17252    1544.8628    0.9900802        1e+09    1.8021914 
   62500      524.991    899.53898  -0.12118053    935.07984    1558.7408     0.999409        1e+09    1.9502441 
   62600      525.991    902.80185  -0.18825481    938.47163    1563.7087    1.0020418        1e+09    1.8831699 
   62700      526.991    900.36857  -0.21616856    935.94221    1560.0644    1.0003002        1e+09    1.8552561 
   62800      527.991    888.39572  -0.15286679    923.49631     1539.086   0.98652828        1e+09    1.9185579 
   62900      528.991     882.4125  -0.17063619    917.27669    1528.5976   0.97971739        1e+09    1.9007885 
   63000      529.991    903.45721    -0.209279    939.15288    1564.9272    1.0029362        1e+09    1.8621457 
   63100      530.991    906.73116  -0.17987222    942.55619    1570.5191    1.0063956        1e+09    1.8915525 
   63200      531.991    897.55106 -0.086224569    933.01338    1555.4315   0.99736182        1e+09    1.9852001 
   63300      532.991    890.85982  -0.26156209    926.05776     1542.896   0.98870285        1e+09    1.8098626 
   63400      533.991    904.77272  -0.24947487    940.52036    1567.3976    1.0047676        1e+09    1.8219498 
   63500      534.991    916.52294   -0.1489998    952.73484    1588.5079    1.0188594        1e+09    1.9224249 
   63600      535.991    901.41836  -0.19987539    937.03348    1561.6817     1.001117        1e+09    1.8715493 
   63700      536.991    894.90191  -0.19734812    930.25956    1550.1117   0.99342875        1e+09    1.8740766 
   63800      537.991    898.93422 -0.068677511    934.45118    1557.8008   0.99882613        1e+09    2.0027472 
   63900      538.991    906.96968  -0.24043168    942.80413    1571.0467    1.0069407        1e+09     1.830993 
   64000      539.991    911.62342   -0.2524052    947.64174     1579.653     1.012998        1e+09    1.8190195 
   64100      540.991    896.28792  -0.11166061    931.70033    1553.4032    0.9962567        1e+09    1.9597641 
   64200      541.991    888.74118  -0.27079422    923.85542    1539.3969      0.98664        1e+09    1.8006305 
   64300      542.991    901.63822  -0.17584947    937.26202    1562.2378    1.0016032        1e+09    1.8955752 
   64400      543.991    909.63142  -0.18764302    945.57103    1575.9706    1.0103119        1e+09    1.8837817 
   64500      544.991    901.41612  -0.26594464    937.03115    1561.4072    1.0007867        1e+09      1.80548 
   64600      545.991    896.56338  -0.30815222    931.98667    1552.8848   0.99528215        1e+09    1.7632725 
   64700      546.991    898.72607  -0.28179826    934.23481    1556.5637   0.99753226        1e+09    1.7896264 
   64800      547.991    901.99808  -0.21087659    937.63611    1562.3997    1.0013195        1e+09    1.8605481 
   64900      548.991    902.67447   -0.1422937    938.33921    1563.8391    1.0023891        1e+09     1.929131 
   65000      549.991    894.73697  -0.31297745    930.08811    1549.6813   0.99319903        1e+09    1.7584472 
   65100      550.991    888.68122   -0.1667893    923.79309    1540.1651   0.98780389        1e+09    1.9046354 
   65200      551.991    903.39775  -0.18170821    939.09108     1565.268    1.0035371        1e+09    1.8897165 
   65300      552.991    911.02899  -0.21202916    947.02382    1577.9058    1.0111239        1e+09    1.8593955 
   65400      553.991    899.89631  -0.27275618    935.45129    1558.6771   0.99895482        1e+09    1.7986685 
   65500      554.991    894.17948  -0.18851679    929.50859    1548.9572   0.99276804        1e+09    1.8829079 
   65600      555.991    897.94495  -0.26415617    933.42283    1555.2563   0.99671012        1e+09    1.8072685 
   65700      556.991    902.07769  -0.25535698    937.71886    1562.9044    1.0020667        1e+09    1.8160677 
   65800      557.991     902.5944  -0.33219191    938.25598    1563.3024     1.001967        1e+09    1.7392328 
   65900      558.991    892.52223  -0.23077603    927.78586    1545.8327   0.99058985        1e+09    1.8406487 
   66000      559.991    885.67928  -0.27583307    920.67254    1533.8127   0.98280067        1e+09    1.7955916 
   66100      560.991    903.48463  -0.20647743    939.18139    1564.9593    1.0029375        1e+09    1.8649472 
   66200      561.991    908.83844  -0.18534245    944.74672    1574.2459    1.0088657        1e+09    1.8860822 
   66300      562.991    899.50215  -0.20372045    935.04156    1558.2743   0.99885521        1e+09    1.8677042 
   66400      563.991    893.82631  -0.21201593    929.14147    1548.1026    0.9920246        1e+09    1.8594087 
   66500      564.991    900.25013  -0.21810673    935.81909    1559.6631   0.99985767        1e+09     1.853318 
   66600      565.991    926.07776   -0.2618006    962.66717     1604.142    1.0281754        1e+09    1.8096241 
   66700      566.991    917.06721  -0.19186297    953.30061    1588.9614    1.0187482        1e+09    1.8795617 
   66800      567.991    901.74467  -0.24045172    937.37268    1562.0225    1.0011845        1e+09     1.830973 
   66900      568.991    893.53798  -0.19457836    928.84174    1548.4489   0.99303185        1e+09    1.8768463 
   67000      569.991    897.24471  -0.23950643    932.69493    1554.2372    0.9962042        1e+09    1.8319183 
   67100      570.991    910.14933  -0.27753759     946.1094    1576.2479    1.0100377        1e+09    1.7938871 
   67200      571.991    908.08855  -0.20485942    943.96721    1573.0459    1.0082234        1e+09    1.8665653 
   67300      572.991    886.19361  -0.21616652     921.2072    1535.5298   0.98459957        1e+09    1.8552582 
   67400      573.991    891.94693  -0.21666168    927.18783    1545.0394   0.99025432        1e+09     1.854763 
   67500      574.991    903.49284  -0.27617149    939.18992    1565.3865    1.0037199        1e+09    1.7952532 
   67600      575.991    904.36251  -0.21732644    940.09395    1566.7426    1.0043499        1e+09    1.8540982 
   67700      576.991    896.46521  -0.27094034    931.88463    1552.9246   0.99544975        1e+09    1.8004843 
   67800      577.991    880.95012  -0.23923856    915.75653     1525.917   0.97796803        1e+09    1.8321861 
   67900      578.991    884.53018  -0.24071053    919.47804    1532.2687   0.98218453        1e+09    1.8307141 
   68000      579.991    905.37864  -0.20514006    941.15023    1568.6805     1.005743        1e+09    1.8662846 
   68100      580.991    904.97545  -0.26043178    940.73111    1567.7959    1.0050858        1e+09    1.8109929 
   68200      581.991    894.63625  -0.24368817    929.98341    1549.5394   0.99302849        1e+09    1.8277365 
   68300      582.991    891.22384  -0.18226946    926.43617    1543.9107   0.98959514        1e+09    1.8891552 
   68400      583.991    909.51747  -0.11885213    945.45259    1575.9619    1.0103777        1e+09    1.9525725 
   68500      584.991    913.76732  -0.16039255    949.87034    1583.2931    1.0151121        1e+09    1.9110321 
   68600      585.991    900.57965  -0.23949927    936.16163    1559.9487   0.99980073        1e+09    1.8319254 
   68700      586.991    896.98131  -0.19204882    932.42112    1553.7258   0.99574742        1e+09    1.8793759 
   68800      587.991    899.81895  -0.21744933    935.37088    1558.4332   0.99860423        1e+09    1.8539753 
   68900      588.991    905.86796   -0.1722682    941.65889    1569.4599     1.006124        1e+09    1.8991565 
   69000      589.991    910.13829  -0.26104285    946.09793    1576.3074     1.010125        1e+09    1.8103818 
   69100      590.991    896.25045  -0.14486409    931.66139    1552.6064   0.99509557        1e+09    1.9265606 
   69200      591.991    888.62851   -0.1400043     923.7383    1539.1798   0.98627018        1e+09    1.9314204 
   69300      592.991    902.12853  -0.31356464     937.7717    1562.5797     1.001555        1e+09      1.75786 
   69400      593.991    909.96666  -0.17651254    945.91952    1576.2884    1.0102449        1e+09    1.8949121 
   69500      594.991    902.79578  -0.13912148    938.46532    1564.1937    1.0027502        1e+09    1.9323032 
   69600      595.991    898.80894  -0.22772829    934.32095    1556.9768   0.99796944        1e+09    1.8436964 
   69700      596.991    898.73455  -0.17659586    934.24362    1557.0279   0.99809329        1e+09    1.8948288 
   69800      597.991    901.97756  -0.23505782    937.61477     1562.413    1.0014136        1e+09    1.8363669 
   69900      598.991    909.27527  -0.16570838    945.20082     1575.273    1.0097524        1e+09    1.9057163 
   70000      599.991    905.84918  -0.23507027    941.63936    1568.9471    1.0054344        1e+09    1.8363544 
   70100      600.991    890.41655  -0.18857778    925.59698     1542.187   0.98818813        1e+09    1.8828469 
   70200      601.991    892.97905  -0.24533198    928.26073    1547.1988   0.99204115        1e+09    1.8260927 
   70300      602.991    908.88246  -0.24617383    944.79249    1574.1754    1.0087769        1e+09    1.8252509 
   70400      603.991    907.91835  -0.25930639    943.79029    1572.4391    1.0076219        1e+09    1.8121183 
   70500      604.991    901.36311  -0.34366594    936.97604    1560.9796    1.0003145        1e+09    1.7277587 
   70600      605.991    898.03586  -0.21449412    933.51733    1555.4483   0.99678689        1e+09    1.8569306 
   70700      606.991    898.77107  -0.27192956    934.28159    1556.7972   0.99781559        1e+09    1.7994951 
   70800      607.991    906.29213  -0.21836409    942.09981     1569.797    1.0060316        1e+09    1.8530606 
   70900      608.991    912.52007  -0.07681142    948.57382    1581.8558    1.0147526        1e+09    1.9946133 
   71000      609.991    896.38901  -0.23119086    931.80542    1552.6306   0.99504191        1e+09    1.8402338 
   71100      610.991    889.39399  -0.22197356    924.53403     1540.537   0.98730112        1e+09    1.8494511 
   71200      611.991     900.4769  -0.17854699    936.05482    1559.8193   0.99966687        1e+09    1.8928777 
   71300      612.991    906.60085  -0.17483605    942.42073    1570.4618    1.0065127        1e+09    1.8965886 
   71400      613.991     902.5387  -0.32478457    938.19808    1563.1394    1.0017867        1e+09    1.7466401 
   71500      614.991    899.10835  -0.18880528     934.6322    1557.4513    0.9981687        1e+09    1.8826194 
   71600      615.991    898.71684  -0.22426611    934.22522    1556.9088   0.99800828        1e+09    1.8471586 
   71700      616.991    901.92202   -0.1680876    937.55704    1562.7642    1.0019616        1e+09    1.9033371 
   71800      617.991    911.26844  -0.25127021    947.27273    1578.8129    1.0122414        1e+09    1.8201545 
   71900      618.991    905.65262  -0.23343428    941.43503    1568.5861    1.0051807        1e+09    1.8379904 
   72000      619.991    890.14704  -0.17312652    925.31683    1542.5549    0.9892017        1e+09    1.8982982 
   72100      620.991    894.13033  -0.16196737     929.4575    1549.2154   0.99322108        1e+09    1.9094573 
   72200      621.991    907.85489 -0.038525343    943.72432    1574.3673    1.0104631        1e+09    2.0328993 
   72300      622.991    906.62854  -0.20518485    942.44951    1570.7517    1.0069797        1e+09    1.8662398 
   72400      623.991    901.15831  -0.27175139    936.76316     1560.721    1.0001259        1e+09    1.7996733 
   72500      624.991    898.67207  -0.24875288    934.17868    1556.7095   0.99780287        1e+09    1.8226718 
   72600      625.991    898.77222  -0.26034683    934.28279    1556.4971   0.99731428        1e+09    1.8110778 
   72700      626.991    903.49815  -0.20403937    939.19544    1565.2752    1.0034171        1e+09    1.8673853 
   72800      627.991    909.29907  -0.22058767    945.22555    1575.0902    1.0095077        1e+09     1.850837 
   72900      628.991    899.10756  -0.14948406    934.63138    1558.6415    1.0000139        1e+09    1.9219406 
   73000      629.991    887.68436  0.052292679    922.75684    1538.9357    0.9871435        1e+09    2.1237174 
   73100      630.991    899.01844  -0.30085961    934.53874    1557.0718   0.99788985        1e+09    1.7705651 
   73200      631.991    910.82932  -0.20442609    946.81626    1578.3525    1.0121601        1e+09    1.8669986 
   73300      632.991    904.87384  -0.21442545    940.62548    1567.8273    1.0052316        1e+09    1.8569992 
   73400      633.991    898.24969   -0.2791025    933.73961    1556.2074   0.99775048        1e+09    1.7923222 
   73500      634.991    896.27059   -0.1671742    931.68232    1552.5312   0.99497727        1e+09    1.9042505 
   73600      635.991    904.72156   -0.2868579    940.46718    1567.0194    1.0043069        1e+09    1.7845668 
   73700      636.991    918.44541   -0.1882521    954.73327    1591.4175    1.0203822        1e+09    1.8831726 
   73800      637.991    901.75217   -0.2941611    937.38047     1561.906    1.0010714        1e+09    1.7772636 
[...]
  149500     1394.991    913.70659  -0.22809488    949.80722    1582.5818    1.0141819        1e+09    1.8433298 
  149600     1395.991    904.93633 -0.083180639    940.69044    1568.5492    1.0060739        1e+09     1.988244 
  149700     1396.991    891.65953  -0.19866194    926.88908    1544.4252   0.98972008        1e+09    1.8727627 
  149800     1397.991    895.73834  -0.17846428    931.12904    1551.5409    0.9942953        1e+09    1.8929604 
  149900     1398.991    907.73192  -0.24836823    943.59648    1572.5076    1.0080245        1e+09    1.8230564 
  150000     1399.991    906.35691  -0.17449131    942.16715    1570.0162    1.0062046        1e+09    1.8969334 
  150100     1400.991    881.01007  -0.18041728    915.81885    1526.0708   0.97802035        1e+09    1.8910074 
  150200     1401.991    892.00358  -0.24123023    927.24672    1545.2592   0.99055151        1e+09    1.8301944 
  150300     1402.991    906.15193  -0.19299906    941.95408    1569.6588     1.006003        1e+09    1.8784256 
  150400     1403.991    904.66355  -0.15253602    940.40688    1567.8202    1.0054712        1e+09    1.9188887 
  150500     1404.991    892.77137  -0.26429977    928.04484    1546.4718   0.99125257        1e+09    1.8071249 
  150600     1405.991    888.53111 -0.061896307    923.63705    1540.1158   0.98780701        1e+09    2.0095284 
  150700     1406.991    912.08062  -0.18674374    948.11701    1579.8264    1.0124091        1e+09    1.8846809 
  150800     1407.991    910.97855  -0.22090276     946.9714    1577.8372    1.0111122        1e+09    1.8505219 
  150900     1408.991    895.82015 -0.083753435    931.21408    1552.5045   0.99555107        1e+09    1.9876712 
  151000     1409.991    894.12137  -0.22581542    929.44818    1549.5205   0.99382712        1e+09    1.8456093 
  151100     1410.991     902.9055   -0.2565759    938.57938    1563.7482    1.0020419        1e+09    1.8148488 
  151200     1411.991    912.59775  -0.20339399    948.65456    1580.7673    1.0130821        1e+09    1.8680307 
  151300     1412.991    910.53789  -0.17323617    946.51332    1577.3146    1.0109325        1e+09    1.8981885 
  151400     1413.991    891.27099  -0.21612803    926.48519    1544.4605   0.99045178        1e+09    1.8552966 
  151500     1414.991    891.88523  -0.13149097    927.12369    1545.3726   0.99075447        1e+09    1.9399337 
  151600     1415.991    906.70609  -0.19643183    942.53013    1570.7498    1.0068335        1e+09    1.8749929 
  151700     1416.991    907.87488 -0.063758288     943.7451     1573.552     1.009164        1e+09    2.0076664 
  151800     1417.991    893.67702  -0.22655351    928.98627    1548.1791   0.99241922        1e+09    1.8448712 
  151900     1418.991    887.47937  -0.16143613    922.54376    1538.1037   0.98649428        1e+09    1.9099885 
  152000     1419.991    916.42018  -0.10637217    952.62802    1587.7516    1.0177505        1e+09    1.9650525 
  152100     1420.991    911.03165  -0.20464042    947.02659    1578.0613    1.0113569        1e+09    1.8667843 
  152200     1421.991    893.70905  -0.15704505    929.01957    1548.6554   0.99301758        1e+09    1.9143796 
  152300     1422.991    892.66974  -0.07007627     927.9392    1547.3276   0.99248188        1e+09    2.0013484 
  152400     1423.991     906.0486  -0.24378605    941.84666     1569.329    1.0057281        1e+09    1.8276386 
  152500     1424.991    909.93179 -0.046154029    945.88327    1577.2207     1.011588        1e+09    2.0252707 
  152600     1425.991    889.35801  -0.21524236    924.49663    1540.4959   0.98728441        1e+09    1.8561823 
  152700     1426.991     886.0143  -0.24548163     921.0208    1534.6424   0.98352339        1e+09    1.8259431 
  152800     1427.991    898.08531  -0.22946918    933.56874    1555.9664    0.9975586        1e+09    1.8419555 
  152900     1428.991    905.27251  -0.12915177    941.03991    1568.6218    1.0057039        1e+09    1.9422729 
  153000     1429.991    902.00359  -0.23136131    937.64183    1562.6179    1.0016927        1e+09    1.8400634 
  153100     1430.991    887.01983   -0.2726022    922.06606    1536.3474   0.98462394        1e+09    1.7988225 
  153200     1431.991    885.11163  -0.23186041    920.08247      1532.92   0.98224539        1e+09    1.8395643 
  153300     1432.991    908.93303  -0.17663119    944.84505    1574.5553    1.0091899        1e+09    1.8947935 
  153400     1433.991    905.96818  -0.17509433    941.76306       1569.9    1.0066668        1e+09    1.8963304 
  153500     1434.991    894.10688  -0.27930932    929.43312    1549.0153   0.99312745        1e+09    1.7921154 
  153600     1435.991    892.99576  -0.21094175     928.2781     1547.121   0.99183358        1e+09    1.8604829 
  153700     1436.991    911.02044  -0.07103192    947.01494    1579.0395    1.0127287        1e+09    2.0003928 
  153800     1437.991    915.08987  -0.30090844    951.24514    1585.2612    1.0162877        1e+09    1.7705162 
  153900     1438.991    901.97774  -0.24491267    937.61496     1562.156    1.0010174        1e+09     1.826512 
  154000     1439.991    898.28341  -0.17202866    933.77467    1556.4957   0.99798466        1e+09     1.899396 
  154100     1440.991    898.52996  -0.17363684    934.03095    1556.5216   0.99761809        1e+09    1.8977878 
  154200     1441.991    903.18633    -0.258871     938.8713    1564.4884    1.0027638        1e+09    1.8125537 
  154300     1442.991    907.20552 -0.025775484    943.04928      1572.74    1.0089169        1e+09    2.0456492 
  154400     1443.991    898.12654  -0.20847555     933.6116    1555.9846   0.99748546        1e+09    1.8629491 
  154500     1444.991    887.36049    -0.163512    922.42018    1538.0232   0.98656665        1e+09    1.9079127 
  154600     1445.991    899.70253  -0.18322785    935.24986    1558.5951   0.99900267        1e+09    1.8881968 
  154700     1446.991    911.33243  -0.17692655    947.33926    1579.0961    1.0124694        1e+09    1.8944981 
  154800     1447.991    903.93898  -0.17737657    939.65368    1565.9551    1.0037296        1e+09    1.8940481 
  154900     1448.991    897.38663  -0.23505755    932.84245    1554.1916   0.99588761        1e+09    1.8363671 
  155000     1449.991    897.30464 -0.072997014    932.75722    1555.1019   0.99722293        1e+09    1.9984277 
  155100     1450.991    906.33946  -0.17897981    942.14901    1570.2473    1.0066111        1e+09    1.8924449 
  155200     1451.991    921.57195  -0.23757501    957.98333    1596.1512    1.0228382        1e+09    1.8338497 
  155300     1452.991    903.04072  -0.24738384    938.71994    1564.1105    1.0023824        1e+09    1.8240408 
  155400     1453.991    893.84963  -0.23930717     929.1657    1548.2591   0.99228032        1e+09    1.8321175 
  155500     1454.991    899.06776  -0.19518356    934.59001    1557.1899   0.99782767        1e+09    1.8762411 
  155600     1455.991    908.08555   -0.3013763    943.96409    1572.7045     1.007836        1e+09    1.7700484 
  155700     1456.991    904.37133  -0.26754391    940.10312    1566.8344    1.0045628        1e+09    1.8038808 
  155800     1457.991    884.89083  -0.24562721    919.85294     1533.105   0.98293159        1e+09    1.8257975 
  155900     1458.991    892.08041  -0.19568901    927.32658    1545.8285   0.99126283        1e+09    1.8757357 
  156000     1459.991    904.22273  -0.26256124    939.94864    1566.0157    1.0034906        1e+09    1.8088634 
  156100     1460.991      903.102  -0.21944788    938.78364    1564.9458     1.003574        1e+09    1.8519768 
  156200     1461.991    897.31042  -0.24865441    932.76324    1554.5015   0.99653277        1e+09    1.8227703 
  156300     1462.991    893.65502  -0.34308472     928.9634      1547.66   0.99181077        1e+09      1.72834 
  156400     1463.991    901.56941 -0.052513355    937.19049    1562.7754    1.0023817        1e+09    2.0189113 
  156500     1464.991    912.10535  -0.21523228    948.14271    1579.8945    1.0125228        1e+09    1.8561924 
  156600     1465.991    900.92797  -0.22547375    936.52371    1560.4234    0.9999586        1e+09    1.8459509 
  156700     1466.991    889.75116  -0.25738897    924.90531    1541.1361   0.98772293        1e+09    1.8140357 
  156800     1467.991    897.22831  -0.15555214    932.67788    1554.9322   0.99721043        1e+09    1.9158725 
  156900     1468.991    905.48633  -0.15848009    941.26218    1568.5183    1.0052289        1e+09    1.9129446 
  157000     1469.991    903.19381  -0.19962246    938.87908    1564.2662    1.0023004        1e+09    1.8718022 
  157100     1470.991    899.06141  -0.14813073     934.5834    1558.2085   0.99939487        1e+09     1.923294 
  157200     1471.991    897.05443   -0.1804194    932.49713    1553.9543   0.99597312        1e+09    1.8910053 
  157300     1472.991    902.20196  -0.25284014    937.84804    1562.8896     1.001832        1e+09    1.8185845 
  157400     1473.991    913.57281  -0.21893634    949.66815    1582.7226    1.0146158        1e+09    1.8524883 
  157500     1474.991    903.51076  -0.26510179    939.20855    1564.9088    1.0029069        1e+09    1.8063229 
  157600     1475.991    889.66425  -0.17860799    924.81496    1541.4328   0.98821685        1e+09    1.8928167 
  157700     1476.991    896.32561  -0.27287981    931.73951    1552.6655   0.99527019        1e+09    1.7985449 
  157800     1477.991    905.06651  -0.23337618    940.82576    1567.6777    1.0047013        1e+09    1.8380485 
  157900     1478.991    903.26074 -0.060065895    938.94864    1566.1591    1.0049981        1e+09    2.0113588 
  158000     1479.991    899.87301  -0.22928772    935.42707    1558.8938   0.99927103        1e+09     1.842137 
  158100     1480.991    899.17521   -0.2676616     934.7017    1557.9922   0.99905018        1e+09    1.8037631 
  158200     1481.991    899.99187  -0.17352123    935.55063     1559.295   0.99962655        1e+09    1.8979034 
  158300     1482.991    902.61797  -0.20025934    938.28048    1563.4299    1.0019206        1e+09    1.8711653 
  158400     1483.991    905.73544  -0.22150364    941.52112    1569.5341    1.0065425        1e+09     1.849921 
  158500     1484.991    899.06083  -0.24902959    934.58281    1557.5889   0.99856466        1e+09    1.8223951 
  158600     1485.991    890.85846  -0.28603238    926.05635    1542.8622   0.98869019        1e+09    1.7853923 
  158700     1486.991    898.73817  -0.16480397     934.2474    1556.8978   0.99785983        1e+09    1.9066207 
  158800     1487.991    913.73324  -0.18702585    949.83492    1583.1421    1.0149695        1e+09    1.8843988 
  158900     1488.991    904.49698  -0.18778663    940.23373    1567.0683    1.0046005        1e+09     1.883638 
  159000     1489.991     894.6167  -0.15686677    929.96308    1549.8527   0.99342387        1e+09    1.9145579 
  159100     1490.991    897.81739  -0.21113431    933.29023    1555.1033   0.99659255        1e+09    1.8602904 
  159200     1491.991    903.64529  -0.25029886    939.34839    1565.2734    1.0032434        1e+09    1.8211258 
  159300     1492.991    904.21518 -0.093001973     939.9408    1566.9104    1.0046649        1e+09    1.9784227 
  159400     1493.991    890.90628  -0.23179309    926.10606    1543.0079   0.98875692        1e+09    1.8396316 
  159500     1494.991    885.87023  -0.12088876    920.87104    1535.0859   0.98427434        1e+09    1.9505359 
  159600     1495.991    905.44142  -0.21780438    941.21549     1568.607    1.0055409        1e+09    1.8536203 
  159700     1496.991    907.45905  -0.24008306    943.31284    1571.8984    1.0074896        1e+09    1.8313416 
  159800     1497.991    898.70492  -0.22816775    934.21283    1556.4975   0.99737539        1e+09    1.8432569 
  159900     1498.991    894.30419  -0.26594831    929.63823    1548.9058   0.99260198        1e+09    1.8054764 
  160000     1499.991    904.31343  -0.26623058    940.04293    1566.8137     1.004624        1e+09    1.8051941 
  160100     1500.991    921.83877  -0.35130431     958.2607    1596.2446    1.0227257        1e+09    1.7201204 
  160200     1501.991    905.29269  -0.16353931    941.06088    1569.0668    1.0064383        1e+09    1.9078854 
  160300     1502.991    896.81148 -0.059491655    932.24458    1554.2558   0.99666704        1e+09     2.011933 
  160400     1503.991    897.59035  -0.10418264    933.05422    1555.8969   0.99807087        1e+09     1.967242 
  160500     1504.991    904.99113  -0.35480097    940.74741     1567.329    1.0044628        1e+09    1.7166237 
  160600     1505.991    910.81825  -0.27022655    946.80476    1577.3846    1.0107332        1e+09    1.8011981 
  160700     1506.991    896.65337   -0.2397423    932.08023     1553.737   0.99638801        1e+09    1.8316824 
  160800     1507.991    887.41103  -0.28144254    922.47272    1536.8165   0.98473811        1e+09    1.7899821 
  160900     1508.991    900.35398  -0.28222173    935.92704    1559.2292   0.99909217        1e+09    1.7892029 
  161000     1509.991    907.42187  -0.21667265    943.27418    1572.3144    1.0081807        1e+09     1.854752 
  161100     1510.991    902.16711  -0.10603926    937.81181    1563.9008    1.0032749        1e+09    1.9653854 
  161200     1511.991    897.92293  -0.18539036    933.39994    1555.1935   0.99652009        1e+09    1.8860343 
  161300     1512.991    898.48409  -0.25832202    933.98327    1556.6846   0.99809124        1e+09    1.8131027 
  161400     1513.991     904.6511  -0.23968299    940.39394    1567.1533    1.0045631        1e+09    1.8317417 
  161500     1514.991    919.75037  -0.24209989    956.08979     1593.522    1.0216669        1e+09    1.8293248 
  161600     1515.991    905.28266  -0.22063859    941.05046    1568.2066    1.0051684        1e+09    1.8507861 
  161700     1516.991    892.72179  -0.17746442     927.9933    1546.2438   0.99083078        1e+09    1.8939603 
  161800     1517.991    897.37337  -0.16648979    932.82867    1554.6537   0.99654026        1e+09    1.9049349 
  161900     1518.991     908.1209   -0.0966156    944.00084    1574.0744    1.0096439        1e+09    1.9748091 
  162000     1519.991    906.49756    -0.222541    942.31336    1569.9909    1.0060067        1e+09    1.8488837 
  162100     1520.991    884.33121  -0.24119145    919.27122    1531.6026   0.98144938        1e+09    1.8302332 
  162200     1521.991    891.43601  -0.24047342    926.65672    1544.3427   0.99002716        1e+09    1.8309513 
  162300     1522.991    904.44386  -0.27033785    940.17851    1566.5109    1.0039281        1e+09    1.8010868 
  162400     1523.991    903.96294  -0.18146633     939.6786    1565.9637      1.00371        1e+09    1.8899584 
  162500     1524.991    896.45927  -0.29328397    931.87845    1552.5808   0.99494458        1e+09    1.7781407 
  162600     1525.991    888.16822  -0.20387199    923.25983    1538.6901   0.98635461        1e+09    1.8675527 
  162700     1526.991    892.08164  -0.22667541    927.32787    1545.5797   0.99091171        1e+09    1.8447493 
  162800     1527.991    909.69778   -0.2580332    945.64002     1575.435    1.0094561        1e+09    1.8133915 
  162900     1528.991     906.8269  -0.18880981    942.65571    1570.8676    1.0068088        1e+09    1.8826149 
  163000     1529.991    892.42617  -0.33009674      927.686    1545.6041   0.99054275        1e+09    1.7413279 
  163100     1530.991    892.86418  -0.19584652    928.14132    1547.0637    0.9919366        1e+09    1.8755782 
  163200     1531.991    905.37208  -0.29613729    941.14341    1568.6516    1.0058533        1e+09    1.7752874 
  163300     1532.991    907.37495  -0.27215564    943.22541    1571.8812    1.0076535        1e+09     1.799269 
  163400     1533.991    902.83832  -0.24437264    938.50954    1564.1119     1.002717        1e+09     1.827052 
  163500     1534.991    897.38769  -0.23561619    932.84356    1554.3496   0.99613984        1e+09    1.8358085 
  163600     1535.991    895.76294  -0.21586796    931.15461    1551.6967   0.99456381        1e+09    1.8555567 
  163700     1536.991    903.73878  -0.21792165    939.44558    1565.3929    1.0032273        1e+09     1.853503 
  163800     1537.991    912.20387  -0.19932598    948.24512    1579.9488    1.0124202        1e+09    1.8720987 
  163900     1538.991    897.93244  -0.21829063    933.40983    1555.7315   0.99741885        1e+09    1.8531341 
  164000     1539.991    887.08748  -0.18556408    922.13638    1536.8558   0.98518631        1e+09    1.8858606 
  164100     1540.991     898.0995  -0.28846915    933.58348    1555.5111   0.99689998        1e+09    1.7829555 
  164200     1541.991    904.82986  -0.29729036    940.57976    1567.2962    1.0045867        1e+09    1.7741343 
  164300     1542.991     901.8449  -0.27134944    937.47687    1561.9795    1.0009981        1e+09    1.8000752 
  164400     1543.991    897.44527  -0.24582037    932.90341    1555.3023   0.99758667        1e+09    1.8256043 
  164500     1544.991    897.99486  -0.26677222    933.47471    1555.3758   0.99682273        1e+09    1.8046525 
  164600     1545.991    914.63433  -0.24353144    950.77161    1584.2937    1.0154044        1e+09    1.8278932 
  164700     1546.991    912.13353  -0.25051868      948.172    1579.9598     1.012637        1e+09     1.820906 
  164800     1547.991    893.96132  -0.22642399    929.28181    1548.8331   0.99299327        1e+09    1.8450007 
  164900     1548.991    893.51892  -0.11254661    928.82193    1548.8084   0.99350807        1e+09    1.9588781 
  165000     1549.991    905.46232  -0.30785527    941.23722    1568.2197    1.0050298        1e+09    1.7635694 
  165100     1550.991    910.06109  -0.17206638    946.01768    1577.0934    1.0113703        1e+09    1.8993583 
  165200     1551.991    887.06893  -0.19459053     922.1171    1536.5876   0.98480196        1e+09    1.8768341 
  165300     1552.991    886.63442  -0.24677178    921.66543    1535.7963   0.98434135        1e+09    1.8246529 
  165400     1553.991    902.13088  -0.24906924    937.77415    1562.4843    1.0012949        1e+09    1.8223554 
  165500     1554.991    905.63682  -0.13066197    941.41861    1569.3742     1.006305        1e+09    1.9407627 
  165600     1555.991    898.42133  -0.26530295    933.91804    1556.2181   0.99745952        1e+09    1.8061217 
  165700     1556.991    886.80385  -0.19161274    921.84155    1536.4614   0.98503644        1e+09    1.8798119 
  165800     1557.991      887.846  -0.11769094    922.92488    1538.3762   0.98625028        1e+09    1.9537337 
  165900     1558.991    909.23765  -0.24501781    945.16171    1574.7244    1.0090631        1e+09    1.8264069 
  166000     1559.991    907.28226  -0.18695019    943.12906    1571.4261    1.0069423        1e+09    1.8844745 
  166100     1560.991    893.33033 -0.082772166    928.62589    1548.0716    0.9925939        1e+09    1.9886525 
  166200     1561.991    892.70137  -0.16626385    927.97208     1546.724   0.99161625        1e+09    1.9051608 
  166300     1562.991    908.92229  -0.26053347    944.83389     1574.388    1.0090743        1e+09    1.8108912 
  166400     1563.991    916.74091  -0.20895117    952.96142    1588.1881    1.0180801        1e+09    1.8624735 
  166500     1564.991    887.26289  -0.22184421    922.31872    1537.3025   0.98566799        1e+09    1.8495805 
  166600     1565.991    891.98831  -0.27105983    927.23084    1545.0103   0.99022596        1e+09    1.8003649 
  166700     1566.991    907.33137  -0.22135073    943.18011    1571.4171    1.0069012        1e+09    1.8500739 
  166800     1567.991    907.33178  -0.19565927    943.18054    1572.1002    1.0079538        1e+09    1.8757654 
  166900     1568.991    892.96636  -0.29768403    928.24754     1546.4